------------------------------------------------------------
          Invoking FHI-aims ...

          When using FHI-aims, please cite the following reference:

            Volker Blum, Ralf Gehrke, Felix Hanke, Paula Havu,
            Ville Havu, Xinguo Ren, Karsten Reuter, and Matthias Scheffler,
            'Ab Initio Molecular Simulations with Numeric Atom-Centered Orbitals',
            Computer Physics Communications 180, 2175-2196 (2009)

          In addition, many other developments in FHI-aims are likely important for
          your particular application. A partial list of references is given at the end of
          this file. Thank you for giving credit to the authors of these developments.

          For any questions about FHI-aims, please visit our slack channel at

            https://fhi-aims.slack.com

          and our main development and support site at

            https://aims-git.rz-berlin.mpg.de .

          The latter site, in particular, has a wiki to collect information, as well
          as an issue tracker to log discussions, suggest improvements, and report issues
          or bugs. https://aims-git.rz-berlin.mpg.de is also the main development site
          of the project and all new and updated code versions can be obtained there.
          Please send an email to aims-coordinators@fhi-berlin.mpg.de and we will add
          you to these sites. They are for you and everyone is welcome there.

------------------------------------------------------------



  Date     :  20210824, Time     :  191037.236
  Time zero on CPU 1             :   0.173270000000000E-01  s.
  Internal wall clock time zero  :           399064237.236  s.

  FHI-aims created a unique identifier for this run for later identification
  aims_uuid : AAC8C961-D0E7-4F48-A9BA-DA839B3AA6F5

  Build configuration of the current instance of FHI-aims
  -------------------------------------------------------
  FHI-aims version      : 210226
  Commit number         : GITDIR-NOTFOUND
  CMake host system     : Linux-3.10.0-514.6.1.el7.x86_64
  CMake version         : 3.8.0-rc1
  Fortran compiler      : /apps/intel2018/compilers_and_libraries/linux/mpi/intel64/bin/mpiifort (Intel) version 18.0.5.20180823
  Fortran compiler flags: -fc=ifort -O3 -ip -fp-model precise -xCORE-AVX2 -qopt-zmm-usage=high
  C compiler            : /apps/intel2018/compilers_and_libraries_2018.5.274/linux/mpi/intel64/bin/mpiicc (Intel) version 18.0.5.20180823
  C compiler flags      : -O3 -ip -fp-model precise -std=gnu99 -xCORE-AVX2 -qopt-zmm-usage=high
  ELPA2 kernel          : AVX2
  Using MPI
  Using ScaLAPACK
  Using LibXC
  Using i-PI
  Using RLSY
  Linking against: /apps/intel2018/compilers_and_libraries_2018.5.274/linux/mkl/lib/intel64_lin/libmkl_intel_lp64.so
                   /apps/intel2018/compilers_and_libraries_2018.5.274/linux/mkl/lib/intel64_lin/libmkl_sequential.so
                   /apps/intel2018/compilers_and_libraries_2018.5.274/linux/mkl/lib/intel64_lin/libmkl_core.so
                   /apps/intel2018/compilers_and_libraries_2018.5.274/linux/mkl/lib/intel64_lin/libmkl_blacs_intelmpi_lp64.so
                   /apps/intel2018/compilers_and_libraries_2018.5.274/linux/mkl/lib/intel64_lin/libmkl_scalapack_lp64.so

  Using        4 parallel tasks.
  Task        0 on host mercury reporting.
  Task        1 on host mercury reporting.
  Task        2 on host mercury reporting.
  Task        3 on host mercury reporting.

  Performing system and environment tests:
  | Environment variable OMP_NUM_THREADS correctly set to 1.
  | Checking for ScaLAPACK...
  | Testing pdtran()...
  | All pdtran() tests passed.

  Obtaining array dimensions for all initial allocations:
  
  -----------------------------------------------------------------------
  Parsing control.in (first pass over file, find array dimensions only).
  The contents of control.in will be repeated verbatim below
  unless switched off by setting 'verbatim_writeout .false.' .
  in the first line of control.in .
  -----------------------------------------------------------------------
  
  xc                   hse06 0.11
  hse_unit             bohr
  relativistic         atomic_zora scalar
  k_grid               6 6 6
  relax_geometry       bfgs 5e-3
  relax_unit_cell      full
  ################################################################################
  #
  #  FHI-aims code project
  #  VB, Fritz-Haber Institut, 2009
  #
  #  Suggested "light" defaults for Si atom (to be pasted into control.in file)
  #  Be sure to double-check any results obtained with these settings for post-processing,
  #  e.g., with the "tight" defaults and larger basis sets.
  #
  ################################################################################
    species        Si
  #     global species definitions
      nucleus             14
      mass                28.0855
  #
      l_hartree           4
  #
      cut_pot             3.5          1.5  1.0
      basis_dep_cutoff    1e-4
  #
      radial_base         42 5.0
      radial_multiplier   1
      angular_grids       specified
        division   0.5866   50
        division   0.9616  110
        division   1.2249  194
        division   1.3795  302
  #      division   1.4810  434
  #      division   1.5529  590
  #      division   1.6284  770
  #      division   1.7077  974
  #      division   2.4068 1202
  #      outer_grid   974
        outer_grid 302
  ################################################################################
  #
  #  Definition of "minimal" basis
  #
  ################################################################################
  #     valence basis states
      valence      3  s   2.
      valence      3  p   2.
  #     ion occupancy
      ion_occ      3  s   1.
      ion_occ      3  p   1.
  ################################################################################
  #
  #  Suggested additional basis functions. For production calculations,
  #  uncomment them one after another (the most important basis functions are
  #  listed first).
  #
  #  Constructed for dimers: 1.75 A, 2.0 A, 2.25 A, 2.75 A, 3.75 A
  #
  ################################################################################
  #  "First tier" - improvements: -571.96 meV to -37.03 meV
       hydro 3 d 4.2
       hydro 2 p 1.4
  #     hydro 4 f 6.2
       ionic 3 s auto
  #  "Second tier" - improvements: -16.76 meV to -3.03 meV
  #     hydro 3 d 9
  #     hydro 5 g 9.4
  #     hydro 4 p 4
  #     hydro 1 s 0.65
  #  "Third tier" - improvements: -3.89 meV to -0.60 meV
  #     ionic 3 d auto
  #     hydro 3 s 2.6
  #     hydro 4 f 8.4
  #     hydro 3 d 3.4
  #     hydro 3 p 7.8
  #  "Fourth tier" - improvements: -0.33 meV to -0.11 meV
  #     hydro 2 p 1.6
  #     hydro 5 g 10.8
  #     hydro 5 f 11.2
  #     hydro 3 d 1
  #     hydro 4 s 4.5
  #  Further basis functions that fell out of the optimization - noise
  #  level... < -0.08 meV
  #     hydro 4 d 6.6
  #     hydro 5 g 16.4
  #     hydro 4 d 9
  
  -----------------------------------------------------------------------
  Completed first pass over input file control.in .
  -----------------------------------------------------------------------
  
  
  -----------------------------------------------------------------------
  Parsing geometry.in (first pass over file, find array dimensions only).
  The contents of geometry.in will be repeated verbatim below
  unless switched off by setting 'verbatim_writeout .false.' .
  in the first line of geometry.in .
  -----------------------------------------------------------------------
  
  #
  # This is the geometry file that corresponds to the current relaxation step.
  # If you do not want this file to be written, set the "write_restart_geometry" flag to .false.
  #  aims_uuid : D80F59BE-D7C4-4B9F-ACCA-49A773EAB996
  #
  lattice_vector     -0.00000004      2.74234227      2.74234227
  lattice_vector      2.74234232      0.00000002      2.74234230
  lattice_vector      2.74234232      2.74234230      0.00000002
  atom_frac       0.00000000     -0.00000000     -0.00000000 Si
  atom_frac       0.25000000      0.25000000      0.25000000 Si
  #
  # What follows is the current estimated Hessian matrix constructed by the BFGS algorithm.
  # This is NOT the true Hessian matrix of the system.
  # If you do not want this information here, switch it off using the "hessian_to_restart_geometry" keyword.
  #
  trust_radius             0.2000000030
  hessian_file
  
  -----------------------------------------------------------------------
  Completed first pass over input file geometry.in .
  -----------------------------------------------------------------------
  

  Basic array size parameters:
  | Number of species                 :        1
  | Number of atoms                   :        2
  | Number of lattice vectors         :        3
  | Max. basis fn. angular momentum   :        2
  | Max. atomic/ionic basis occupied n:        3
  | Max. number of basis fn. types    :        3
  | Max. radial fns per species/type  :        5
  | Max. logarithmic grid size        :     1346
  | Max. radial integration grid size :       42
  | Max. angular integration grid size:      302
  | Max. angular grid division number :        8
  | Radial grid for Hartree potential :     1346
  | Number of spin channels           :        1

------------------------------------------------------------
          Reading file control.in.
------------------------------------------------------------

  XC: Using HSE-functional with OMEGA =  0.110000E+00 <units>.
  XC: For the actual units (bohr^-1 or Angstrom^-1), see below.
  hse_unit: Unit for the HSE06 hybrid functional screening parameter set to bohr^(-1).
  Scalar relativistic treatment of kinetic energy: on-site free-atom approximation to ZORA.
  Found k-point grid:         6         6         6
  Geometry relaxation: Modified BFGS - TRM (trust radius method) for lattice optimization.
  Convergence accuracy for geometry relaxation: Maximum force <   0.500000E-02 eV/A.
 
  Reading configuration options for species Si                  .
  | Found nuclear charge :  14.0000
  | Found atomic mass :    28.0855000000000      amu
  | Found l_max for Hartree potential  :   4
  | Found cutoff potl. onset [A], width [A], scale factor :    3.50000    1.50000    1.00000
  | Threshold for basis-dependent cutoff potential is   0.100000E-03
  | Found data for basic radial integration grid :    42 points, outermost radius =    5.000 A
  | Found multiplier for basic radial grid :   1
  | Found angular grid specification: user-specified.
  | Specified grid contains     5 separate shells.
  | Check grid settings after all constraints further below.
  | Found free-atom valence shell :  3 s   2.000
  | Found free-atom valence shell :  3 p   2.000
  | Found free-ion valence shell :  3 s   1.000
  | Found free-ion valence shell :  3 p   1.000
  | Found hydrogenic basis function :  3 d   4.200
  | Found hydrogenic basis function :  2 p   1.400
  | Found ionic basis function :  3 s , default cutoff radius.
  Species Si                  : Missing cutoff potential type.
  Defaulting to exp(1/x)/(1-x)^2 type cutoff potential.
  Species Si: No 'logarithmic' tag. Using default grid for free atom:
  | Default logarithmic grid data [bohr] : 0.1000E-03 0.1000E+03 0.1012E+01
  | Will include ionic basis functions of  2.0-fold positive Si                   ion.
  Species Si: On-site basis accuracy parameter (for Gram-Schmidt orthonormalisation) not specified.
  Using default value basis_acc =  0.1000000E-03.
  Species Si                  : Using default innermost maximum threshold i_radial=  2 for radial functions.
  Species Si                  : Default cutoff onset for free atom density etc. : 0.35000000E+01 AA.
  Species Si                  : Basic radial grid will be enhanced according to radial_multiplier =   1, to contain    42 grid points.
 
  Finished reading input file 'control.in'.
 
------------------------------------------------------------


------------------------------------------------------------
          Reading geometry description geometry.in.
------------------------------------------------------------
 * Large trust radius value found - resetting to the current value of max_atomic_move,      0.20000000 A.
  Found keyword 'hessian_file', indicating that this is the continuation of a structure optimization.
  Verifying the existence of the file 'hessian.aims' on all processors
  | The smallest distance between any two atoms is         2.37493809 AA.
  | The first atom of this pair is atom number                      1 .
  | The second atom of this pair is atom number                     2 .
  | Wigner-Seitz cell of the first atom image           1     0     0 .
  | (The Wigner-Seitz cell of the second atom is 0 0 0  by definition.)

  Symmetry information by spglib:
  | Precision set to  0.1E-04
  | Number of Operations  : 48
  | Space group           : 227
  | International         : Fd-3m
  | Schoenflies           : Oh^7
  Input structure read successfully.
  The structure contains        2 atoms,  and a total of         28.000 electrons.

  Input geometry:
  | Unit cell:
  |       -0.00000004        2.74234227        2.74234227
  |        2.74234232        0.00000002        2.74234230
  |        2.74234232        2.74234230        0.00000002
  | Atomic structure:
  |       Atom                x [A]            y [A]            z [A]
  |    1: Species Si            0.00000000        0.00000000        0.00000000
  |    2: Species Si            1.37117115        1.37117115        1.37117115

  Lattice parameters for 3D lattice (in Angstroms) :     3.878258    3.878258    3.878258
  Angle(s) between unit vectors (in degrees)       :    59.999999   60.000000   60.000000


  Quantities derived from the lattice vectors:
  | Reciprocal lattice vector 1: -1.145587  1.145587  1.145587
  | Reciprocal lattice vector 2:  1.145587 -1.145587  1.145587
  | Reciprocal lattice vector 3:  1.145587  1.145587 -1.145587
  | Unit cell volume                               :   0.412472E+02  A^3

  Fractional coordinates:
                         L1                L2                L3
       atom_frac         0.00000000        0.00000000        0.00000000  Si
       atom_frac         0.25000000        0.25000000        0.25000000  Si

 
  Finished reading input file 'control.in'.
 

------------------------------------------------------------
          Reading geometry description geometry.in.
------------------------------------------------------------
 
  Consistency checks for stacksize environment parameter are next.
 
  | Maximum stacksize for task 0: unlimited
  | Maximum stacksize for task 1: unlimited
  | Maximum stacksize for task 2: unlimited
  | Maximum stacksize for task 3: unlimited
  | Current stacksize for task 0: unlimited
  | Current stacksize for task 1: unlimited
  | Current stacksize for task 2: unlimited
  | Current stacksize for task 3: unlimited
 
  Consistency checks for the contents of control.in are next.
 
  HSE06 screening parameters: omega_HF  =      0.11000000 bohr^-1, and
                              omega_PBE =      0.11000000 bohr^-1.
  MPI_IN_PLACE appears to work with this MPI implementation.
  | Keeping use_mpi_in_place .true. (see manual).
  Explicit treatment of the Coulomb operator is needed, but the RI method is not specified.
  Coulomb operator: Defaulting to 'LVL fast' resolution of identity - RI_type = LVL_fast
  Species Si: Using default value for prodbas_acc =   1.000000E-04.
  Species Si: Using default value max_l_prodbas =    20.
  Target number of points in a grid batch is not set. Defaulting to  100
  Method for grid partitioning is not set. Defaulting to parallel hash+maxmin partitioning.
  Batch size limit is not set. Defaulting to    200
  By default, will store active basis functions for each batch.
  If in need of memory, prune_basis_once .false. can be used to disable this option.
  communication_type for Hartree potential was not specified.
  Defaulting to calc_hartree .
  Defaulting to Pulay charge density mixer.
  Pulay mixer: Number of relevant iterations not set.
  Defaulting to    8 iterations.
  Pulay mixer: Number of initial linear mixing iterations not set.
  Defaulting to    0 iterations.
  Work space size for distributed Hartree potential not set.
  Defaulting to   0.200000E+03 MB.
  Mixing parameter for charge density mixing has not been set.
  Using default: charge_mix_param =     0.0500.
  The mixing parameter will be adjusted in iteration number     2 of the first full s.c.f. cycle only.
  Algorithm-dependent basis array size parameters:
  | n_max_pulay                         :        8
  Maximum number of self-consistency iterations not provided.
  Presetting  1000 iterations.
  Presetting      1001 iterations before the initial mixing cycle
  is restarted anyway using the sc_init_iter criterion / keyword.
  Presetting a factor      1.000 between actual scf density residual
  and density convergence criterion sc_accuracy_rho below which sc_init_iter
  takes no effect.
 * No s.c.f. convergence criteria (sc_accuracy_*) were provided in control.in.
 * The run will proceed with a reasonable default guess, but please check whether.
 * the s.c.f. cycles seem to take too much or too little time.
  No maximum number of relaxation steps, defaulting to     1000
  Using explicit Hessian from geometry.in.
  No maximum energy tolerance for TRM/BFGS moves, defaulting to   0.100000E-02
  Maximum energy tolerance by which TRM/BFGS trajectory may increase over multiple steps:   0.300000E-02
  No harmonic length scale. Defaulting to   0.250000E-01 A.
  No trust radius initializer. Defaulting to   0.200000E+00 A.
  Unit cell relaxation: Unit cell will be relaxed fully.
  Unit cell relaxation: Analytical stress will be used.
  Analytical stress will be computed.
  Analytical stress calculation: Only the upper triangle is calculated.
                                 Final output is symmetrized.
  Analytical stress calculation: scf convergence accuracy of stress not set.
                                 Analytical stress self-consistency will not be checked explicitly.
                                 Be sure to set other criteria like sc_accuracy_rho tight enough.
 * Notice: The s.c.f. convergence criterion sc_accuracy_rho was not provided.
 * We used to stop in this case, and ask the user to provide reasonable
 * scf convergence criteria. However, this led some users to employ criteria
 * that led to extremely long run times, e.g., for simple relaxation.
 * We now preset a default value for sc_accuracy_rho if it is not set.
 * You may still wish to check if this setting is too tight or too loose for your needs.
 * Based on n_atoms, FHI-aims chose sc_accuracy_rho =  0.100000E-05 .
  Force calculation: scf convergence accuracy of forces not set.
  Defaulting to 'sc_accuracy_forces not_checked'.
  Handling of forces: Unphysical translation and rotation will be removed from forces.
  No accuracy limit for integral partition fn. given. Defaulting to  0.1000E-14.
  No threshold value for u(r) in integrations given. Defaulting to  0.1000E-05.
  No occupation type (smearing scheme) given. Defaulting to Gaussian broadening, width =  0.1000E-01 eV.
  The width will be adjusted in iteration number     2 of the first full s.c.f. cycle only.
  S.C.F. convergence parameters will be adjusted in iteration number     2 of the first full s.c.f. cycle only.
  No accuracy for occupation numbers given. Defaulting to  0.1000E-12.
  No threshold value for occupation numbers given. Defaulting to  0.0000E+00.
  No accuracy for fermi level given. Defaulting to  0.1000E-19.
  Maximum # of iterations to find E_F not set. Defaulting to  200.
  Preferred method for the eigenvalue solver ('KS_method') not specified in 'control.in'.
  Defaulting to serial version, LAPACK (via ELSI), since more k-points than CPUs available.
  Will not use alltoall communication since running on < 1024 CPUs.
  Threshold for basis singularities not set.
  Default threshold for basis singularities:  0.1000E-04
  partition_type (choice of integration weights) for integrals was not specified.
  | Using a version of the partition function of Stratmann and coworkers ('stratmann_sparse').
  | At each grid point, the set of atoms used to build the partition table is smoothly restricted to
  | only those atoms whose free-atom density would be non-zero at that grid point.
  Partitioning for Hartree potential was not defined. Using partition_type for integrals.
  | Adjusted default value of keyword multip_moments_threshold to:       0.10000000E-11
  | This value may affect high angular momentum components of the Hartree potential in periodic systems.
  Spin handling was not defined in control.in. Defaulting to unpolarized case.
  Threshold for auxiliary basis singularities not set.
  Default threshold for auxiliary basis singularities:  0.1000E-04
  No q(lm)/r^(l+1) cutoff set for long-range Hartree potential.
  | Using default value of  0.100000E-09 .
  | Verify using the multipole_threshold keyword.
  Defaulting to new monopole extrapolation.
  Density update method: automatic selection selected.
  Using density matrix based charge density update.
  Using density matrix based charge density update.
  Using packed matrix style: index .
 * NOTE: You are attempting to run a periodic structure with an exchange treatment
 * which requires a two-electron Coulomb operator (Hartree-Fock or a hybrid functional).
 * The present implementation is reliable to our knowledge, but some things
 * (like band structure output, or perhaps the auxilary basis set for small
 * orbital basis sets - see the "for_aux" keyword) require extra care.
 * Please let us know if you encounter any trouble.
  Coulomb operator: Defaulting to screening threshold for four-center integrals:   0.100000E-06
  Coulomb operator: Defaulting to screening threshold for Coulomb matrix:   0.100000E-09
  Coulomb operator: Defaulting to 'LVL_fast' resolution of identity - RI_type = LVL_fast 
  No other resolution of identity version is supported for periodic boundary conditions at present.
  Coulomb operator: Defaulting to logarithmic spherical Bessel transform integrals (use_logsbt .true.).
  HSE with LVL_fast: Also defaulting to logarithmic spherical Bessel transform integrals.
  Geometry relaxation: A file "geometry.in.next_step" is written out by default after each step.
  | This file contains the geometry of the current relaxation step as well as
  | the current Hessian matrix needed to restart the relaxation algorithm.
  | If you do not want part or all of this information, use the keywords
  | "write_restart_geometry" or "hessian_to_restart_geometry" to switch the output off.
  Defaulting to use full k-point grid (no symmetry reduction).
  Charge integration errors on the 3D integration grid will be compensated
  by explicit normalization and distribution of residual charges.
  Use the "compensate_multipole_errors" flag to change this behaviour.
  LVL not implemented with density matrix yet
  -> switching to transformed overlap
  LVL probably works better with logsbt
  Default to 1D ("use_logsbt") integrations for auxiliary 2-center integrals.
  Default onset of logarithmic r-grid for SBT is -38.000000000000
  Default onset of logarithmic k-grid for SBT is -25.000000000000
  Default range of logarithmic r- and k-grid for SBT is  45.000000000000
  Default number of logarithmic r- and k-grid for SBT is   4096
  * Use logSBT for radial HSE integration, too
  Set 'collect_eigenvectors' to be '.true.' for all serial calculations. This is mandatory.
  Set 'collect_eigenvectors' to be '.true.' for KS_method lapack_fast and serial.
 
  Consistency checks for the contents of geometry.in are next.
 

  Range separation radius for Ewald summation (hartree_convergence_parameter):      3.93130983 bohr.
  Number of empty states per atom not set in control.in - providing a guess from actual geometry.
  | Total number of empty states used during s.c.f. cycle:        6
  If you use a very high smearing, use empty_states (per atom!) in control.in to increase this value.

  Structure-dependent array size parameters: 
  | Maximum number of distinct radial functions  :        8
  | Maximum number of basis functions            :       36
  | Number of Kohn-Sham states (occupied + empty):       20
------------------------------------------------------------
  Setting Coulomb cut-width to  1.091868692359 * rcut.
  Setting Coulomb cutting radius rcut to 11.634772892709 A.

------------------------------------------------------------
          Preparing all fixed parts of the calculation.
------------------------------------------------------------
  Determining machine precision:
    2.225073858507201E-308
  Setting up grids for atomic and cluster calculations.

  Creating wave function, potential, and density for free atoms.

  Species: Si

  List of occupied orbitals and eigenvalues:
    n    l              occ      energy [Ha]    energy [eV]
    1    0           2.0000       -65.767597     -1789.6274
    2    0           2.0000        -5.115610      -139.2028
    3    0           2.0000        -0.388877       -10.5819
    2    1           6.0000        -3.500197       -95.2452
    3    1           2.0000        -0.140803        -3.8315


  Adding cutoff potential to free-atom effective potential.
  Creating fixed part of basis set: Ionic, confined, hydrogenic.
 
  Si                   ion:

  List of free ionic orbitals and eigenvalues:
    n    l      energy [Ha]    energy [eV]
    1    0       -66.641157     -1813.3982
    2    0        -5.964274      -162.2962
    3    0        -1.073878       -29.2217
    2    1        -4.350005      -118.3697
    3    1        -0.776571       -21.1316


  List of ionic basis orbitals and eigenvalues:
    n    l      energy [Ha]    energy [eV]    outer radius [A]
    3    0        -1.073857       -29.2211       4.214062

 
  Si                   hydrogenic:
 
  List of hydrogenic basis orbitals: 
    n    l      effective z      eigenvalue [eV]  inner max. [A]     outer max. [A]     outer radius [A]   
    3    2         4.200000       -26.6624           1.139231           1.139231           4.534782
    2    1         1.400000        -6.4613           1.472672           1.472672           4.590560
 
  Creating atomic-like basis functions for current effective potential.

  Species Si                  :

  List of atomic basis orbitals and eigenvalues:
    n    l      energy [Ha]    energy [eV]    outer radius [A]
    1    0       -65.767597     -1789.6274       0.789468
    2    0        -5.115610      -139.2028       2.815114
    3    0        -0.388877       -10.5819       4.534782
    2    1        -3.500197       -95.2452       3.259919
    3    1        -0.140803        -3.8315       4.590560

  Assembling full basis from fixed parts.
  | Species Si :   atomic orbital   1 s accepted.
  | Species Si :   atomic orbital   2 s accepted.
  | Species Si :    ionic orbital   3 s accepted.
  | Species Si :   atomic orbital   3 s accepted.
  | Species Si :   atomic orbital   2 p accepted.
  | Species Si :   atomic orbital   3 p accepted.
  | Species Si :    hydro orbital   2 p accepted.
  | Species Si :    hydro orbital   3 d accepted.
 
  Basis size parameters after reduction:
  | Total number of radial functions:        8
  | Total number of basis functions :       36
 
  Per-task memory consumption for arrays in subroutine allocate_ext:
  |           2.757868MB.
  Testing on-site integration grid accuracy.
  |  Species  Function  <phi|h_atom|phi> (log., in eV)  <phi|h_atom|phi> (rad., in eV)
           1        1              -1789.6273740966              -1789.6266345813
           1        2               -139.2028173376               -139.2028132357
           1        3                -10.2237226190                -10.2235219160
           1        4                  5.6355365073                  5.5558633521 ***
           1        5                -95.2452114632                -95.2452114537
           1        6                 -3.8413965043                 -3.8571292824
           1        7                  6.4035522332                  6.2277973139 ***
           1        8                  6.3860095444                  6.3839142324
 * Note: Onsite integrals marked "***" above are less accurate than
 * onsite_accuracy_threshold =    0.03000 eV. Usually, this is harmless.
 * When in doubt, tighten the "radial" and/or "radial_multiplier" flags to check.

  Preparing densities etc. for the partition functions (integrals / Hartree potential).

  Preparations completed.
  max(cpu_time)          :      0.218 s.
  Wall clock time (cpu1) :      0.218 s.
------------------------------------------------------------

------------------------------------------------------------
          Begin self-consistency loop: Initialization.

          Date     :  20210824, Time     :  191037.520
------------------------------------------------------------

  Initializing index lists of integration centers etc. from given atomic structure:
  Mapping all atomic coordinates to central unit cell.

  Initializing the k-points
  | Number of k-points                             :       216
  | Consuming        729 KiB for k_phase_exx.
  The eigenvectors in the calculations are COMPLEX.
  | K-points in task   0:        54
  | K-points in task   1:        54
  | K-points in task   2:        54
  | K-points in task   3:        54
  | Number of basis functions in the Hamiltonian integrals :      1454
  | Number of basis functions in a single unit cell        :        36
  | Number of centers in hartree potential         :       732
  | Number of centers in hartree multipole         :       318
  | Number of centers in electron density summation:       198
  | Number of centers in basis integrals           :       198
  | Number of centers in integrals                 :       101
  | Number of centers in hamiltonian               :       198
  | Consuming        378 KiB for k_phase.
  | Number of super-cells (origin) [n_cells]                     :        2197
  | Number of super-cells (after PM_index) [n_cells]             :         112
  | Number of super-cells in hamiltonian [n_cells_in_hamiltonian]:         112
  | Size of matrix packed + index [n_hamiltonian_matrix_size] :       42199

  Initializing relaxation algorithms.
  Finished initialization of distributed Hessian storage.
  | Global dimension:        15
  | BLACS block size:         4
  | Number of workers:        4

  Reading estimated Hessian matrix from file 'hessian.aims'
  | Estimated reciprocal-space cutoff momentum G_max:         2.37335278 bohr^-1 .
  | Reciprocal lattice points for long-range Hartree potential:      58
  Partitioning the integration grid into batches with parallel hashing+maxmin method.
  | Number of batches:      149
  | Maximal batch size:     109
  | Minimal batch size:      51
  | Average batch size:      75.221
  | Standard deviation of batch sizes:      20.922

  Integration load balanced across     4 MPI tasks.
  Work distribution over tasks is as follows:
  Task     0 has       2840 integration points.
  Task     1 has       2800 integration points.
  Task     2 has       2769 integration points.
  Task     3 has       2799 integration points.
  Initializing partition tables, free-atom densities, potentials, etc. across the integration grid (initialize_grid_storage).
  | initialize_grid_storage: Actual outermost partition radius vs. multipole_radius_free
  | (-- VB: in principle, multipole_radius_free should be larger, hence this output)
  | Species        1: Confinement radius =              4.999999999999999 AA, multipole_radius_free =              5.000694715736543 AA.
  | Species        1: outer_partition_radius set to              5.000694715736543 AA .
  | The sparse table of interatomic distances needs        212.76 kbyte instead of       313.63 kbyte of memory.
  | Net number of integration points:    11208
  | of which are non-zero points    :     9844
  | Numerical average free-atom electrostatic potential    :    -12.74478726 eV
  Renormalizing the initial density to the exact electron count on the 3D integration grid.
  | Initial density: Formal number of electrons (from input files) :      28.0000000000
  | Integrated number of electrons on 3D grid     :      28.0046518128
  | Charge integration error                      :       0.0046518128
  | Normalization factor for density and gradient :       0.9998338914
  Renormalizing the free-atom superposition density to the exact electron count on the 3D integration grid.
  | Formal number of electrons (from input files) :      28.0000000000
  | Integrated number of electrons on 3D grid     :      28.0046518128
  | Charge integration error                      :       0.0046518128
  | Normalization factor for density and gradient :       0.9998338914
  Obtaining max. number of non-zero basis functions in each batch (get_n_compute_maxes).
  | Maximal number of non-zero basis functions:      461 in task     0
  | Maximal number of non-zero basis functions:      449 in task     1
  | Maximal number of non-zero basis functions:      468 in task     2
  | Maximal number of non-zero basis functions:      468 in task     3
  Allocating        0.593 MB for KS_eigenvector_complex
  Integrating Hamiltonian matrix: batch-based integration.
  Time summed over all CPUs for integration: real work        0.543 s, elapsed        0.795 s => Consider using load balancing!
  Integrating overlap matrix.
  Time summed over all CPUs for integration: real work        0.280 s, elapsed        0.295 s

  Updating Kohn-Sham eigenvalues and eigenvectors using ELSI and the (modified) LAPACK eigensolver.
  Singularity check in k-point 4, task 0 (analysis for other k-points/tasks may follow below):
  Overlap matrix is not singular
  | Lowest and highest eigenvalues :  0.5226E-03,  0.6378E+01
  Finished singularity check of overlap matrix
  | Time :     0.001 s
  Starting LAPACK eigensolver
  Finished Cholesky decomposition
  | Time :     0.000 s
  Finished transformation to standard eigenproblem
  | Time :     0.000 s
  Finished solving standard eigenproblem
  | Time :     0.000 s
  Finished back-transformation of eigenvectors
  | Time :     0.000 s

  Obtaining occupation numbers and chemical potential using ELSI.
  | Chemical potential (Fermi level):    -6.04270343 eV
  Writing Kohn-Sham eigenvalues.
  K-point:       1 at    0.000000    0.000000    0.000000 (in units of recip. lattice)

  State    Occupation    Eigenvalue [Ha]    Eigenvalue [eV]
      1       2.00000         -65.787415        -1790.16664
      2       2.00000         -65.787415        -1790.16664
      3       2.00000          -5.139736         -139.85934
      4       2.00000          -5.139490         -139.85264
      5       2.00000          -3.524333          -95.90198
      6       2.00000          -3.524333          -95.90198
      7       2.00000          -3.524333          -95.90198
      8       2.00000          -3.523779          -95.88690
      9       2.00000          -3.523779          -95.88690
     10       2.00000          -3.523779          -95.88690
     11       2.00000          -0.652077          -17.74391
     12       2.00000          -0.223777           -6.08927
     13       2.00000          -0.223777           -6.08927
     14       2.00000          -0.223777           -6.08927
     15       0.00000          -0.121620           -3.30945
     16       0.00000          -0.121620           -3.30945
     17       0.00000          -0.121620           -3.30945
     18       0.00000          -0.109724           -2.98575
     19       0.00000           0.073824            2.00884
     20       0.00000           0.073824            2.00884

  What follows are estimated values for band gap, HOMO, LUMO, etc.
  | They are estimated on a discrete k-point grid and not necessarily exact.
  | For converged numbers, create a DOS and/or band structure plot on a denser k-grid.

  Highest occupied state (VBM) at     -6.08927032 eV (relative to internal zero)
  | Occupation number:      2.00000000
  | K-point:       1 at    0.000000    0.000000    0.000000 (in units of recip. lattice)

  Lowest unoccupied state (CBM) at    -5.05484951 eV (relative to internal zero)
  | Occupation number:      0.00000000
  | K-point:     149 at    0.666667    0.000000    0.666667 (in units of recip. lattice)

  ESTIMATED overall HOMO-LUMO gap:      1.03442081 eV between HOMO at k-point 1 and LUMO at k-point 149
  | This appears to be an indirect band gap.
  | Smallest direct gap :      2.69545972 eV for k_point 109 at    0.500000    0.000000    0.000000 (in units of recip. lattice)
  The gap value is above 0.2 eV. Unless you are using a very sparse k-point grid,
  this system is most likely an insulator or a semiconductor.
  Calculating total energy contributions from superposition of free atom densities.

  Total energy components:
  | Sum of eigenvalues            :        -329.22615095 Ha       -8958.69938085 eV
  | XC energy correction          :         -41.70845591 Ha       -1134.94483064 eV
  | XC potential correction       :          53.86375866 Ha        1465.70744750 eV
  | Free-atom electrostatic energy:        -263.66708411 Ha       -7174.74640561 eV
  | Hartree energy correction     :           0.00000000 Ha           0.00000000 eV
  | Entropy correction            :          -0.00000000 Ha          -0.00000000 eV
  | ---------------------------
  | Total energy                  :        -580.73793230 Ha      -15802.68316959 eV
  | Total energy, T -> 0          :        -580.73793230 Ha      -15802.68316959 eV  <-- do not rely on this value for anything but (periodic) metals
  | Electronic free energy        :        -580.73793230 Ha      -15802.68316959 eV

  Derived energy quantities:
  | Kinetic energy                :         582.27261476 Ha       15844.44400403 eV
  | Electrostatic energy          :       -1121.30209115 Ha      -30512.18234298 eV
  | Energy correction for multipole
  | error in Hartree potential    :           0.00000000 Ha           0.00000000 eV
  | Sum of eigenvalues per atom                           :       -4479.34969042 eV
  | Total energy (T->0) per atom                          :       -7901.34158480 eV  <-- do not rely on this value for anything but (periodic) metals
  | Electronic free energy per atom                       :       -7901.34158480 eV
  
  --------------------------------------------
  Constructing auxiliary basis (full product) ...
  
  Product basis:
  | charge radius: extent of product basis function
  | field radius: extent of its Coulomb potential
  | Species   l  charge radius    field radius
  |    Si     0     4.318366 A      4.318366 A
  |    Si     0     4.371482 A      6.705824 A
  |    Si     0     4.425251 A      8.775170 A
  |    Si     0     4.534782 A     12.662889 A
  |    Si     0     4.590560 A     18.497769 A
  |    Si     0     4.590560 A     21.160261 A
  |    Si     0     4.534782 A     23.334310 A
  |    Si     0     4.590560 A     24.503715 A
  |    Si     0     4.590560 A     25.110215 A
  |    Si     0     4.590560 A     25.110215 A
  |    Si     1     4.318366 A      4.318366 A
  |    Si     1     4.371482 A      5.124469 A
  |    Si     1     4.479682 A     10.541300 A
  |    Si     1     4.534782 A     13.297494 A
  |    Si     1     4.590560 A     16.170285 A
  |    Si     1     4.590560 A     21.950719 A
  |    Si     1     4.647024 A     23.621323 A
  |    Si     1     4.647024 A     24.805112 A
  |    Si     1     4.647024 A     25.110215 A
  |    Si     1     4.647024 A     25.419071 A
  |    Si     2     4.371482 A      4.371482 A
  |    Si     2     4.479682 A      7.485751 A
  |    Si     2     4.534782 A     16.774339 A
  |    Si     2     4.590560 A     21.684006 A
  |    Si     2     4.590560 A     23.621323 A
  |    Si     2     4.590560 A     24.805112 A
  |    Si     2     4.590560 A     25.110215 A
  |    Si     3     4.479682 A     18.497769 A
  |    Si     3     4.534782 A     22.220713 A
  |    Si     3     4.590560 A     23.911865 A
  |    Si     3     4.590560 A     24.805112 A
  |    Si     4     4.534782 A     23.334310 A

  | Shrink_full_auxil_basis : there are       32  radial auxiliary wave functions
                            accepted and      26 rejected.
  | Shrink_full_auxil_basis : there are totally               22176 partial auxiliary wave functions.
  prodbas_tasks_distribution_pbc not up to date - distributing tasks.
 
  | Number of product basis functions per thread :  5544
  Parallel distribution of product basis not up to date - distributing tasks.
 
  | Number of product basis functions per thread :    56
  | Minimal requirement for computer memory :           0.001 Gbs
  -----------------------------------------
  --- Initializing Fock matrix calculations
  -----------------------------------------
  screening_threshold (crit_val) =  0.000000100000
  coul_mat_threshold =  0.000000000100
  Trying to make the workload more even by internally splitting atoms into fractions
  Atom:            1  Basis/atom:    18.0000000000000
  Atom:            2  Basis/atom:    18.0000000000000
  -----------------------------------------------------
  Dividing atoms among tasks for exact exchange energy:
  Atom:     1 Weight:   112.00
  Atom:     2 Weight:   112.00

  Average weight per task:   56.000

  Number of "big" (above average) atoms  :     2
  Number of "small" (below average) atoms:     0
  All atoms have above average work per task
  Atoms will be divided among tasks to get best load distribution

  Atom division among tasks:
  Atom     1: (initial) task:     0, # of tasks:     2
  Atom     2: (initial) task:     2, # of tasks:     2

  -----------------------------------------------------
 No atoms are split internally
  Number of super-cells in X Y Z:       6       6       6
  Number of atoms pairs total:          334
  Atom pair distribution:
  Cell:       -3       0       1 atom pairs:        1
  Cell:       -3       1       0 atom pairs:        1
  Cell:       -3       1       1 atom pairs:        3
  Cell:       -2      -1       0 atom pairs:        1
  Cell:       -2      -1       1 atom pairs:        3
  Cell:       -2      -1       2 atom pairs:        3
  Cell:       -2       0      -1 atom pairs:        1
  Cell:       -2       0       0 atom pairs:        3
  Cell:       -2       0       1 atom pairs:        4
  Cell:       -2       0       2 atom pairs:        4
  Cell:       -2       1      -1 atom pairs:        3
  Cell:       -2       1       0 atom pairs:        4
  Cell:       -2       1       1 atom pairs:        4
  Cell:       -2       1       2 atom pairs:        3
  Cell:       -2       2      -1 atom pairs:        3
  Cell:       -2       2       0 atom pairs:        4
  Cell:       -2       2       1 atom pairs:        3
  Cell:       -1      -2       0 atom pairs:        1
  Cell:       -1      -2       1 atom pairs:        3
  Cell:       -1      -2       2 atom pairs:        3
  Cell:       -1      -1      -1 atom pairs:        3
  Cell:       -1      -1       0 atom pairs:        4
  Cell:       -1      -1       1 atom pairs:        4
  Cell:       -1      -1       2 atom pairs:        4
  Cell:       -1      -1       3 atom pairs:        3
  Cell:       -1       0      -2 atom pairs:        1
  Cell:       -1       0      -1 atom pairs:        4
  Cell:       -1       0       0 atom pairs:        4
  Cell:       -1       0       1 atom pairs:        4
  Cell:       -1       0       2 atom pairs:        4
  Cell:       -1       0       3 atom pairs:        1
  Cell:       -1       1      -2 atom pairs:        3
  Cell:       -1       1      -1 atom pairs:        4
  Cell:       -1       1       0 atom pairs:        4
  Cell:       -1       1       1 atom pairs:        4
  Cell:       -1       1       2 atom pairs:        3
  Cell:       -1       2      -2 atom pairs:        3
  Cell:       -1       2      -1 atom pairs:        4
  Cell:       -1       2       0 atom pairs:        4
  Cell:       -1       2       1 atom pairs:        3
  Cell:       -1       3      -1 atom pairs:        3
  Cell:       -1       3       0 atom pairs:        1
  Cell:        0      -3       1 atom pairs:        1
  Cell:        0      -2      -1 atom pairs:        1
  Cell:        0      -2       0 atom pairs:        3
  Cell:        0      -2       1 atom pairs:        4
  Cell:        0      -2       2 atom pairs:        4
  Cell:        0      -1      -2 atom pairs:        1
  Cell:        0      -1      -1 atom pairs:        4
  Cell:        0      -1       0 atom pairs:        4
  Cell:        0      -1       1 atom pairs:        4
  Cell:        0      -1       2 atom pairs:        4
  Cell:        0      -1       3 atom pairs:        1
  Cell:        0       0      -2 atom pairs:        3
  Cell:        0       0      -1 atom pairs:        4
  Cell:        0       0       0 atom pairs:        4
  Cell:        0       0       1 atom pairs:        4
  Cell:        0       0       2 atom pairs:        3
  Cell:        0       1      -3 atom pairs:        1
  Cell:        0       1      -2 atom pairs:        4
  Cell:        0       1      -1 atom pairs:        4
  Cell:        0       1       0 atom pairs:        4
  Cell:        0       1       1 atom pairs:        4
  Cell:        0       1       2 atom pairs:        1
  Cell:        0       2      -2 atom pairs:        4
  Cell:        0       2      -1 atom pairs:        4
  Cell:        0       2       0 atom pairs:        3
  Cell:        0       2       1 atom pairs:        1
  Cell:        0       3      -1 atom pairs:        1
  Cell:        1      -3       0 atom pairs:        1
  Cell:        1      -3       1 atom pairs:        3
  Cell:        1      -2      -1 atom pairs:        3
  Cell:        1      -2       0 atom pairs:        4
  Cell:        1      -2       1 atom pairs:        4
  Cell:        1      -2       2 atom pairs:        3
  Cell:        1      -1      -2 atom pairs:        3
  Cell:        1      -1      -1 atom pairs:        4
  Cell:        1      -1       0 atom pairs:        4
  Cell:        1      -1       1 atom pairs:        4
  Cell:        1      -1       2 atom pairs:        3
  Cell:        1       0      -3 atom pairs:        1
  Cell:        1       0      -2 atom pairs:        4
  Cell:        1       0      -1 atom pairs:        4
  Cell:        1       0       0 atom pairs:        4
  Cell:        1       0       1 atom pairs:        4
  Cell:        1       0       2 atom pairs:        1
  Cell:        1       1      -3 atom pairs:        3
  Cell:        1       1      -2 atom pairs:        4
  Cell:        1       1      -1 atom pairs:        4
  Cell:        1       1       0 atom pairs:        4
  Cell:        1       1       1 atom pairs:        3
  Cell:        1       2      -2 atom pairs:        3
  Cell:        1       2      -1 atom pairs:        3
  Cell:        1       2       0 atom pairs:        1
  Cell:        2      -2      -1 atom pairs:        3
  Cell:        2      -2       0 atom pairs:        4
  Cell:        2      -2       1 atom pairs:        3
  Cell:        2      -1      -2 atom pairs:        3
  Cell:        2      -1      -1 atom pairs:        4
  Cell:        2      -1       0 atom pairs:        4
  Cell:        2      -1       1 atom pairs:        3
  Cell:        2       0      -2 atom pairs:        4
  Cell:        2       0      -1 atom pairs:        4
  Cell:        2       0       0 atom pairs:        3
  Cell:        2       0       1 atom pairs:        1
  Cell:        2       1      -2 atom pairs:        3
  Cell:        2       1      -1 atom pairs:        3
  Cell:        2       1       0 atom pairs:        1
  Cell:        3      -1      -1 atom pairs:        3
  Cell:        3      -1       0 atom pairs:        1
  Cell:        3       0      -1 atom pairs:        1
 sparsity of pfbvk:   1.000000    
  Number of atoms pairs in BvK cells:          334
  Initializing work distribution for fock matrix calculation
  Task     0 : Coulomb matrix distribution changed.
  Task     1 : Coulomb matrix distribution changed.
  Task     2 : Coulomb matrix distribution changed.
  Task     3 : Coulomb matrix distribution changed.
  Overall Coulomb matrix distribution changed.
  Coulomb matrix subdivision:
  Task     0 atom     1 has        108 Coulomb matrix cells
  Task      0: my_n_atoms2:      1 my_atom_list:      1
  Task      1: my_n_atoms2:      1 my_atom_list:      1
  Task      2: my_n_atoms2:      1 my_atom_list:      2
  Task      3: my_n_atoms2:      1 my_atom_list:      2
  Task      0: my_n_atom_pairs:     83
  Task      1: my_n_atom_pairs:     84
  Task      2: my_n_atom_pairs:     83
  Task      3: my_n_atom_pairs:     84
  Max. memory consumption per node for Hartree Fock matrix + Pulay mixing [GB]:      0.08
  --- Initializing LVL triples, type HSE
  | Storage requirements for basis-basbas products (processor-local):
  |   Species Si: n_prodsfn:   356; storage:       11.12 MiB.

  --- Initializing Coulomb matrix calculations, type HSE
  Preparing TB like auxiliary 2-center HSE-pot matrix
  SBT integration errors (all should be 'small'):
  large logFT aliasing -> increase N/lnrange
  large SBT aliasing -> decrease lnk0 & increase lnk0+lnrange
  large SBT ringing -> decrease lnr0 & increase lnr0+lnrange
  |            El't  L: logFT-al.   small-k   large-k   small-r   large-r
  | Need to store   875 splines of   235 points taking       1624 KiB.
  | Spline reduction from  4096 to   235 points by (cutting and)     1 x coarsening gives error:  0.00E+00
  | Maximum value outside interaction range:  7.55E-14
  Finished with initialize_tb_auxmat/lvl_triples, time:        0.223
  Upper limit for memory consumption per node [GB] for Coulomb matrices if no compression occurs:       0.694
  Upper limit for temporary arrays in Coulomb matrix initalization [GB]:      1.20
  --- Calculating Coulomb matrices
  --- Calculating Coulomb matrices
  Max. memory consumption per node for Coulomb matrix [GB]:      0.19
  Time to calculate Coulomb Matrices   :        6.905
   Number of Coulomb matrix elements:
  | Task     0 total:       10838016, > threshold:        3778862, stored:        5859509
  | Task     1 total:       10838016, > threshold:        3873095, stored:        5914000
  | Task     2 total:       10838016, > threshold:        3857135, stored:        5922471
  | Task     3 total:       10838016, > threshold:        3794822, stored:        5851038
  --- Done init_fock_matrix_calculations
  Max. memory per node for ovlp3fn matrices:        0.388 GB
  Total memory for ovlp3fn matrices:        0.388 GB
  Size of ovlp3fn for atom   26892       1     112
  --- Calculating OVLP3FN
  Allocating        8.859 MB for coeff_3fn
  Allocating       26.578 MB for d_coeff_3fn
  --- Done calculating OVLP3FN, time:       14.158
  Compare n_pairs with n_super      41    2197
  --- Done getting norm of OVLP3FN, time:        0.001
  Atomic logSBT for 2-center HSE-pot matrix    :  max(cpu_time)    wall_clock(cpu1)
  | TB initialization                          :        0.094 s           0.094 s
  | TB usage                                   :        3.785 s           3.718 s

  Atomic logSBT for LVL-triples                :  max(cpu_time)    wall_clock(cpu1)
  | Multiplication with kernel                 :        0.182 s           0.161 s
  | Main matrix multiplication                 :        5.910 s           5.855 s
  | Analytic angular integration               :        0.051 s           0.055 s
  | Kernel construction                        :        0.214 s           0.193 s
  | Overall 2-center overlap time              :        6.933 s           6.843 s
  | 3-center preparation multiplications       :        0.045 s           0.046 s
  | 3-center preparation SBTs                  :        1.183 s           1.174 s
  | 3-center combinations                      :        8.448 s           8.371 s
  | Overal 3-center time                       :        9.678 s           9.592 s
  | LVL initialization                         :        0.128 s           0.129 s
  | Whole LVL-triples                          :        0.128 s           0.129 s

  Max. memory consumption per node for dm_cols plus fock_matrix [GB]:      0.01
  Calculating non-local Hartree-Fock exchange by two-center RI (RI-LVL).
  screening_threshold (crit_val) =  0.000000100000
  Max. memory consumption per node for ovlp3fn_rcv [GB]:      0.01
  Max. memory consumption per node for tmp1/tmp2 [GB]:      0.03
  Exact exchange progress report - outermost basis function loop i_basis_r1: 1 ..      36
  |        1         2         3         4         5         6         7         8         9        10
  |       11        12        13        14        15        16        17        18        19        20
  |       21        22        23        24        25        26        27        28        29        30
  |       31        32        33        34        35        36  
  Full exact exchange energy:    1065.748204506356 eV.
  Detailed communication and barrier times:
  | Comm    0:        0.000       0.000       0.000       0.073       0.004       0.000       0.000       0.000       0.000       0.073
  | Comm    1:        0.000       0.000       0.000       0.073       0.004       0.000       0.000       0.000       0.000       0.073
  | Comm    2:        0.000       0.000       0.000       0.053       0.004       0.000       0.000       0.000       0.000       0.054
  | Comm    3:        0.000       0.000       0.000       0.053       0.004       0.000       0.000       0.000       0.000       0.054
  | Imbalance    0:        0.001       0.000       0.000       0.180       0.084       0.000       0.006       0.000       0.000       0.381
  | Imbalance    1:        0.005       0.000       0.001       0.002       0.005       0.001       0.004       0.000       0.000       0.000
  | Imbalance    2:        0.003       0.000       0.001       0.029       1.569       0.002       0.009       0.000       0.000       0.059
  | Imbalance    3:        0.005       0.000       0.000       0.016       1.555       0.001       0.009       0.000       0.000       0.022
  Times            DM_x_o3fn   CM_x_o3fn    Products        Sync   Imbalance    Pre/Post       Other  Total calc
  | Times    0:        1.123       0.000       4.465       0.151       0.652       0.002       0.101       6.495
  | Times    1:        1.300       0.000       4.922       0.151       0.018       0.002       0.101       6.495
  | Times    2:        0.844       0.000       3.800       0.112       1.672       0.004       0.062       6.494
  | Times    3:        0.856       0.000       3.850       0.112       1.609       0.004       0.062       6.494
  | Times  sum:        4.123       0.000      17.038       0.527       3.951       0.013       0.326      25.978

  Decomposition of Other based on code block (only on MPI task 0):
  Times             Block #1    Block #2    Block #3    Block #4    Block #5    Block #6    Block #7    Block #8
  | Times    0:        0.009       0.000       0.004       0.000       0.002       0.002       0.016       0.001

  Times             Block #9   Block #10   Block #11   Block #12   Block #13   Block #14   Block #15   Block #16
  | Times    0:        0.003       0.000       0.026       0.000       0.027       0.006       0.001       0.001

  Times            Block Sum    Expected
  | Times    0:        0.098       0.101
  Initialize hartree_potential_storage
  Max. number of atoms included in rho_multipole:            2

  End scf initialization - timings             :  max(cpu_time)    wall_clock(cpu1)
  | Time for scf. initialization               :       28.497 s          28.498 s
  | Boundary condition initialization          :        0.068 s           0.069 s
  | Relaxation initialization                  :        0.002 s           0.001 s
  | Integration                                :        0.275 s           0.275 s
  | Solution of K.-S. eqns.                    :        0.048 s           0.048 s
  | Grid partitioning                          :        0.022 s           0.022 s
  | Preloading free-atom quantities on grid    :        0.106 s           0.105 s
  | Free-atom superposition energy             :        0.010 s           0.010 s
  | Total energy evaluation                    :        0.000 s           0.001 s
  | Product basis setup: Total time            :       27.965 s          27.966 s

  Partial memory accounting:
  | Current value for overall tracked memory usage:
  |   Minimum:       94.142 MB (on task 0)
  |   Maximum:       95.259 MB (on task 1)
  |   Average:       94.700 MB
  | Peak value for overall tracked memory usage:
  |   Minimum:      129.577 MB (on task 0 after allocating d_coeff_3fn)
  |   Maximum:      130.695 MB (on task 1 after allocating d_coeff_3fn)
  |   Average:      130.136 MB
  | Largest tracked array allocation so far:
  |   Minimum:       31.008 MB (d_aux_mat on task 0)
  |   Maximum:       31.008 MB (d_aux_mat on task 0)
  |   Average:       31.008 MB
  Note:  These values currently only include a subset of arrays which are explicitly tracked.
  The "true" memory usage will be greater.
------------------------------------------------------------
  Evaluating new KS density using the density matrix
  Evaluating density matrix
  Time summed over all CPUs for getting density from density matrix: real work        0.879 s, elapsed        0.971 s
  Integration grid: deviation in total charge (<rho> - N_e) =  -6.181722E-13

------------------------------------------------------------
          Begin self-consistency iteration #    1

  Date     :  20210824, Time     :  191106.270
------------------------------------------------------------
  Pulay mixing of updated and previous charge densities.
  Renormalizing the density to the exact electron count on the 3D integration grid.
  | Formal number of electrons (from input files) :      28.0000000000
  | Integrated number of electrons on 3D grid     :      28.0000000000
  | Charge integration error                      :      -0.0000000000
  | Normalization factor for density and gradient :       1.0000000000

  Evaluating partitioned Hartree potential by multipole expansion.
  | Original multipole sum: apparent total charge =  -0.127160E-13
  | Sum of charges compensated after spline to logarithmic grids =  -0.472779E-05
  | Analytical far-field extrapolation by fixed multipoles:
  | Hartree multipole sum: apparent total charge =   0.000000E+00
  Summing up the Hartree potential.
  Time summed over all CPUs for potential: real work        0.513 s, elapsed        0.527 s
  | RMS charge density error from multipole expansion :   0.572992E-03
  | Average real-space part of the electrostatic potential :      0.02058322 eV

  Integrating Hamiltonian matrix: batch-based integration.
  Time summed over all CPUs for integration: real work        0.518 s, elapsed        0.570 s
  Max. memory consumption per node for dm_cols plus fock_matrix [GB]:      0.01
  Calculating non-local Hartree-Fock exchange by two-center RI (RI-LVL).
  screening_threshold (crit_val) =  0.000000100000
  Max. memory consumption per node for ovlp3fn_rcv [GB]:      0.01
  Max. memory consumption per node for tmp1/tmp2 [GB]:      0.03
  Exact exchange progress report - outermost basis function loop i_basis_r1: 1 ..      36
  |        1         2         3         4         5         6         7         8         9        10
  |       11        12        13        14        15        16        17        18        19        20
  |       21        22        23        24        25        26        27        28        29        30
  |       31        32        33        34        35        36  
  Full exact exchange energy:    1065.748204506356 eV.
  Times            DM_x_o3fn   CM_x_o3fn    Products        Sync   Imbalance    Pre/Post       Other  Total calc
  | Times    0:        1.127       0.000       4.429       0.145       0.083       0.004       0.093       5.880
  | Times    1:        1.156       0.000       4.468       0.145       0.019       0.004       0.090       5.880
  | Times    2:        0.807       0.000       3.807       0.113       1.088       0.005       0.060       5.880
  | Times    3:        0.863       0.000       3.916       0.113       0.922       0.005       0.062       5.880
  | Times  sum:        3.952       0.000      16.620       0.514       2.112       0.017       0.305      23.520

  Decomposition of Other based on code block (only on MPI task 0):
  Times             Block #1    Block #2    Block #3    Block #4    Block #5    Block #6    Block #7    Block #8
  | Times    0:        0.008       0.000       0.003       0.000       0.002       0.002       0.015       0.001

  Times             Block #9   Block #10   Block #11   Block #12   Block #13   Block #14   Block #15   Block #16
  | Times    0:        0.003       0.000       0.023       0.000       0.026       0.006       0.001       0.001

  Times            Block Sum    Expected
  | Times    0:        0.091       0.093

  Updating Kohn-Sham eigenvalues and eigenvectors using ELSI and the (modified) LAPACK eigensolver.
  Starting LAPACK eigensolver
  Finished Cholesky decomposition
  | Time :     0.001 s
  Finished transformation to standard eigenproblem
  | Time :     0.000 s
  Finished solving standard eigenproblem
  | Time :     0.000 s
  Finished back-transformation of eigenvectors
  | Time :     0.000 s

  Obtaining occupation numbers and chemical potential using ELSI.
  | Chemical potential (Fermi level):    -6.46326866 eV
  Writing Kohn-Sham eigenvalues.
  K-point:       1 at    0.000000    0.000000    0.000000 (in units of recip. lattice)

  State    Occupation    Eigenvalue [Ha]    Eigenvalue [eV]
      1       2.00000         -66.625418        -1812.96987
      2       2.00000         -66.625418        -1812.96987
      3       2.00000          -5.399473         -146.92713
      4       2.00000          -5.399179         -146.91913
      5       2.00000          -3.707253         -100.87948
      6       2.00000          -3.707253         -100.87948
      7       2.00000          -3.707253         -100.87948
      8       2.00000          -3.706687         -100.86409
      9       2.00000          -3.706687         -100.86409
     10       2.00000          -3.706687         -100.86409
     11       2.00000          -0.712384          -19.38496
     12       2.00000          -0.239229           -6.50975
     13       2.00000          -0.239229           -6.50975
     14       2.00000          -0.239229           -6.50975
     15       0.00000          -0.103860           -2.82616
     16       0.00000          -0.103860           -2.82616
     17       0.00000          -0.103859           -2.82616
     18       0.00000          -0.088528           -2.40898
     19       0.00000           0.101395            2.75911
     20       0.00000           0.101395            2.75911

  What follows are estimated values for band gap, HOMO, LUMO, etc.
  | They are estimated on a discrete k-point grid and not necessarily exact.
  | For converged numbers, create a DOS and/or band structure plot on a denser k-grid.

  Highest occupied state (VBM) at     -6.50975281 eV (relative to internal zero)
  | Occupation number:      2.00000000
  | K-point:       1 at    0.000000    0.000000    0.000000 (in units of recip. lattice)

  Lowest unoccupied state (CBM) at    -4.70014193 eV (relative to internal zero)
  | Occupation number:      0.00000000
  | K-point:      85 at    0.333333    0.333333    0.000000 (in units of recip. lattice)

  ESTIMATED overall HOMO-LUMO gap:      1.80961087 eV between HOMO at k-point 1 and LUMO at k-point 85
  | This appears to be an indirect band gap.
  | Smallest direct gap :      3.60338017 eV for k_point 109 at    0.500000    0.000000    0.000000 (in units of recip. lattice)
  The gap value is above 0.2 eV. Unless you are using a very sparse k-point grid,
  this system is most likely an insulator or a semiconductor.

  Total energy components:
  | Sum of eigenvalues            :        -336.06812316 Ha       -9144.87891742 eV
  | XC energy correction          :         -22.21947889 Ha        -604.62278335 eV
  | XC potential correction       :          41.18087571 Ha        1120.58864312 eV
  | Free-atom electrostatic energy:        -263.66708411 Ha       -7174.74640561 eV
  | Hartree energy correction     :          -0.04257373 Ha          -1.15849004 eV
  | Entropy correction            :          -0.00000000 Ha          -0.00000000 eV
  | ---------------------------
  | Total energy                  :        -580.81638416 Ha      -15804.81795330 eV
  | Total energy, T -> 0          :        -580.81638416 Ha      -15804.81795330 eV  <-- do not rely on this value for anything but (periodic) metals
  | Electronic free energy        :        -580.81638416 Ha      -15804.81795330 eV

  Derived energy quantities:
  | Kinetic energy                :         582.30568528 Ha       15845.34389856 eV
  | Electrostatic energy          :       -1121.30920468 Ha      -30512.37591195 eV
  | Energy correction for multipole
  | error in Hartree potential    :           0.00078745 Ha           0.02142771 eV
  | Sum of eigenvalues per atom                           :       -4572.43945871 eV
  | Total energy (T->0) per atom                          :       -7902.40897665 eV  <-- do not rely on this value for anything but (periodic) metals
  | Electronic free energy per atom                       :       -7902.40897665 eV

  Self-consistency convergence accuracy:
  | Change of charge density      :  0.1029E+00
  | Change of sum of eigenvalues  : -0.1862E+03 eV
  | Change of total energy        : -0.2135E+01 eV

  Evaluating new KS density using the density matrix
  Evaluating density matrix
  Time summed over all CPUs for getting density from density matrix: real work        0.887 s, elapsed        0.984 s
  Integration grid: deviation in total charge (<rho> - N_e) =  -6.821210E-13
  End self-consistency iteration #     1       :  max(cpu_time)    wall_clock(cpu1)
  | Time for this iteration                    :        6.458 s           6.458 s
  | Charge density update                      :        0.254 s           0.254 s
  | Density mixing                             :        0.000 s           0.001 s
  | Hartree multipole update                   :        0.001 s           0.001 s
  | Hartree multipole summation                :        0.135 s           0.135 s
  | Integration                                :        0.144 s           0.143 s
  | Fock matrix evaluation                     :        5.883 s           5.884 s
  | Solution of K.-S. eqns.                    :        0.040 s           0.039 s
  | Total energy evaluation                    :        0.001 s           0.000 s

  Partial memory accounting:
  | Current value for overall tracked memory usage:
  |   Minimum:       94.142 MB (on task 0)
  |   Maximum:       95.259 MB (on task 1)
  |   Average:       94.700 MB
  | Peak value for overall tracked memory usage:
  |   Minimum:      129.577 MB (on task 0 after allocating d_coeff_3fn)
  |   Maximum:      130.695 MB (on task 1 after allocating d_coeff_3fn)
  |   Average:      130.136 MB
  | Largest tracked array allocation so far:
  |   Minimum:       31.008 MB (d_aux_mat on task 0)
  |   Maximum:       31.008 MB (d_aux_mat on task 0)
  |   Average:       31.008 MB
  Note:  These values currently only include a subset of arrays which are explicitly tracked.
  The "true" memory usage will be greater.
------------------------------------------------------------

------------------------------------------------------------
          Begin self-consistency iteration #    2

  Date     :  20210824, Time     :  191112.729
------------------------------------------------------------
  Pulay mixing of updated and previous charge densities.
  Renormalizing the density to the exact electron count on the 3D integration grid.
  | Formal number of electrons (from input files) :      28.0000000000
  | Integrated number of electrons on 3D grid     :      28.0000000000
  | Charge integration error                      :       0.0000000000
  | Normalization factor for density and gradient :       1.0000000000

  Evaluating partitioned Hartree potential by multipole expansion.
  | Original multipole sum: apparent total charge =  -0.113866E-13
  | Sum of charges compensated after spline to logarithmic grids =   0.100665E-04
  | Analytical far-field extrapolation by fixed multipoles:
  | Hartree multipole sum: apparent total charge =  -0.113889E-13
  Summing up the Hartree potential.
  Time summed over all CPUs for potential: real work        0.535 s, elapsed        0.552 s
  | RMS charge density error from multipole expansion :   0.123062E-02
  | Average real-space part of the electrostatic potential :     -0.04418130 eV

  Integrating Hamiltonian matrix: batch-based integration.
  Time summed over all CPUs for integration: real work        0.526 s, elapsed        0.585 s
  Max. memory consumption per node for dm_cols plus fock_matrix [GB]:      0.01
  Calculating non-local Hartree-Fock exchange by two-center RI (RI-LVL).
  screening_threshold (crit_val) =  0.000000100000
  Max. memory consumption per node for ovlp3fn_rcv [GB]:      0.01
  Max. memory consumption per node for tmp1/tmp2 [GB]:      0.03
  Exact exchange progress report - outermost basis function loop i_basis_r1: 1 ..      36
  |        1         2         3         4         5         6         7         8         9        10
  |       11        12        13        14        15        16        17        18        19        20
  |       21        22        23        24        25        26        27        28        29        30
  |       31        32        33        34        35        36  
  Full exact exchange energy:    1066.924961512773 eV.
  Times            DM_x_o3fn   CM_x_o3fn    Products        Sync   Imbalance    Pre/Post       Other  Total calc
  | Times    0:        1.144       0.000       4.452       0.149       0.081       0.002       0.101       5.929
  | Times    1:        1.176       0.000       4.487       0.149       0.018       0.002       0.097       5.929
  | Times    2:        0.828       0.000       3.761       0.113       1.162       0.003       0.061       5.928
  | Times    3:        0.858       0.000       3.824       0.113       1.069       0.003       0.062       5.928
  | Times  sum:        4.006       0.000      16.523       0.523       2.329       0.011       0.321      23.714

  Decomposition of Other based on code block (only on MPI task 0):
  Times             Block #1    Block #2    Block #3    Block #4    Block #5    Block #6    Block #7    Block #8
  | Times    0:        0.007       0.000       0.003       0.000       0.002       0.002       0.016       0.001

  Times             Block #9   Block #10   Block #11   Block #12   Block #13   Block #14   Block #15   Block #16
  | Times    0:        0.002       0.000       0.026       0.000       0.028       0.006       0.001       0.001

  Times            Block Sum    Expected
  | Times    0:        0.098       0.101

  Updating Kohn-Sham eigenvalues and eigenvectors using ELSI and the (modified) LAPACK eigensolver.
  Starting LAPACK eigensolver
  Finished Cholesky decomposition
  | Time :     0.000 s
  Finished transformation to standard eigenproblem
  | Time :     0.000 s
  Finished solving standard eigenproblem
  | Time :     0.000 s
  Finished back-transformation of eigenvectors
  | Time :     0.000 s

  Obtaining occupation numbers and chemical potential using ELSI.
  | Chemical potential (Fermi level):    -6.56243071 eV
  What follows are estimated values for band gap, HOMO, LUMO, etc.
  | They are estimated on a discrete k-point grid and not necessarily exact.
  | For converged numbers, create a DOS and/or band structure plot on a denser k-grid.

  Highest occupied state (VBM) at     -6.60903503 eV (relative to internal zero)
  | Occupation number:      2.00000000
  | K-point:       1 at    0.000000    0.000000    0.000000 (in units of recip. lattice)

  Lowest unoccupied state (CBM) at    -4.73110874 eV (relative to internal zero)
  | Occupation number:      0.00000000
  | K-point:      85 at    0.333333    0.333333    0.000000 (in units of recip. lattice)

  ESTIMATED overall HOMO-LUMO gap:      1.87792629 eV between HOMO at k-point 1 and LUMO at k-point 85
  | This appears to be an indirect band gap.
  | Smallest direct gap :      3.62911717 eV for k_point 109 at    0.500000    0.000000    0.000000 (in units of recip. lattice)
  The gap value is above 0.2 eV. Unless you are using a very sparse k-point grid,
  this system is most likely an insulator or a semiconductor.

  Checking to see if s.c.f. parameters should be adjusted.
  The system likely has a gap. Increased the default Pulay mixing parameter (charge_mix_param). Value:   0.200000 .
  Kept the default occupation width. Value:   0.010000 eV.

  Total energy components:
  | Sum of eigenvalues            :        -336.22838299 Ha       -9149.23980937 eV
  | XC energy correction          :         -22.20982415 Ha        -604.36006461 eV
  | XC potential correction       :          41.16866135 Ha        1120.25627345 eV
  | Free-atom electrostatic energy:        -263.66708411 Ha       -7174.74640561 eV
  | Hartree energy correction     :           0.11849658 Ha           3.22445595 eV
  | Entropy correction            :          -0.00000000 Ha          -0.00000000 eV
  | ---------------------------
  | Total energy                  :        -580.81813331 Ha      -15804.86555018 eV
  | Total energy, T -> 0          :        -580.81813331 Ha      -15804.86555018 eV  <-- do not rely on this value for anything but (periodic) metals
  | Electronic free energy        :        -580.81813331 Ha      -15804.86555018 eV

  Derived energy quantities:
  | Kinetic energy                :         582.22658290 Ha       15843.19141341 eV
  | Electrostatic energy          :       -1121.24141754 Ha      -30510.53132988 eV
  | Energy correction for multipole
  | error in Hartree potential    :          -0.00167685 Ha          -0.04562940 eV
  | Sum of eigenvalues per atom                           :       -4574.61990469 eV
  | Total energy (T->0) per atom                          :       -7902.43277509 eV  <-- do not rely on this value for anything but (periodic) metals
  | Electronic free energy per atom                       :       -7902.43277509 eV

  Self-consistency convergence accuracy:
  | Change of charge density      :  0.1094E+00
  | Change of sum of eigenvalues  : -0.4361E+01 eV
  | Change of total energy        : -0.4760E-01 eV

  Evaluating new KS density using the density matrix
  Evaluating density matrix
  Time summed over all CPUs for getting density from density matrix: real work        0.881 s, elapsed        0.975 s
  Integration grid: deviation in total charge (<rho> - N_e) =  -5.968559E-13
  End self-consistency iteration #     2       :  max(cpu_time)    wall_clock(cpu1)
  | Time for this iteration                    :        6.513 s           6.514 s
  | Charge density update                      :        0.252 s           0.252 s
  | Density mixing                             :        0.001 s           0.001 s
  | Hartree multipole update                   :        0.001 s           0.001 s
  | Hartree multipole summation                :        0.141 s           0.141 s
  | Integration                                :        0.147 s           0.148 s
  | Fock matrix evaluation                     :        5.931 s           5.931 s
  | Solution of K.-S. eqns.                    :        0.039 s           0.040 s
  | Total energy evaluation                    :        0.000 s           0.000 s

  Partial memory accounting:
  | Current value for overall tracked memory usage:
  |   Minimum:       94.142 MB (on task 0)
  |   Maximum:       95.260 MB (on task 1)
  |   Average:       94.701 MB
  | Peak value for overall tracked memory usage:
  |   Minimum:      129.577 MB (on task 0 after allocating d_coeff_3fn)
  |   Maximum:      130.695 MB (on task 1 after allocating d_coeff_3fn)
  |   Average:      130.136 MB
  | Largest tracked array allocation so far:
  |   Minimum:       31.008 MB (d_aux_mat on task 0)
  |   Maximum:       31.008 MB (d_aux_mat on task 0)
  |   Average:       31.008 MB
  Note:  These values currently only include a subset of arrays which are explicitly tracked.
  The "true" memory usage will be greater.
------------------------------------------------------------

------------------------------------------------------------
          Begin self-consistency iteration #    3

  Date     :  20210824, Time     :  191119.243
------------------------------------------------------------
  Pulay mixing of updated and previous charge densities.
  Renormalizing the density to the exact electron count on the 3D integration grid.
  | Formal number of electrons (from input files) :      28.0000000000
  | Integrated number of electrons on 3D grid     :      28.0000000000
  | Charge integration error                      :      -0.0000000000
  | Normalization factor for density and gradient :       1.0000000000

  Evaluating partitioned Hartree potential by multipole expansion.
  | Original multipole sum: apparent total charge =  -0.174136E-13
  | Sum of charges compensated after spline to logarithmic grids =  -0.933064E-04
  | Analytical far-field extrapolation by fixed multipoles:
  | Hartree multipole sum: apparent total charge =  -0.174441E-13
  Summing up the Hartree potential.
  Time summed over all CPUs for potential: real work        0.608 s, elapsed        0.622 s
  | RMS charge density error from multipole expansion :   0.114778E-01
  | Average real-space part of the electrostatic potential :      0.38661829 eV

  Integrating Hamiltonian matrix: batch-based integration.
  Time summed over all CPUs for integration: real work        0.537 s, elapsed        0.601 s
  Max. memory consumption per node for dm_cols plus fock_matrix [GB]:      0.01
  Calculating non-local Hartree-Fock exchange by two-center RI (RI-LVL).
  screening_threshold (crit_val) =  0.000000100000
  Max. memory consumption per node for ovlp3fn_rcv [GB]:      0.01
  Max. memory consumption per node for tmp1/tmp2 [GB]:      0.03
  Exact exchange progress report - outermost basis function loop i_basis_r1: 1 ..      36
  |        1         2         3         4         5         6         7         8         9        10
  |       11        12        13        14        15        16        17        18        19        20
  |       21        22        23        24        25        26        27        28        29        30
  |       31        32        33        34        35        36  
  Full exact exchange energy:    1067.125776437588 eV.
  Times            DM_x_o3fn   CM_x_o3fn    Products        Sync   Imbalance    Pre/Post       Other  Total calc
  | Times    0:        1.115       0.000       4.393       0.144       0.066       0.002       0.097       5.816
  | Times    1:        1.143       0.000       4.417       0.144       0.018       0.002       0.093       5.816
  | Times    2:        0.808       0.000       3.710       0.110       1.124       0.003       0.060       5.816
  | Times    3:        0.838       0.000       3.777       0.110       1.028       0.003       0.060       5.816
  | Times  sum:        3.904       0.000      16.297       0.508       2.236       0.011       0.309      23.265

[...]
   Hartree-Fock exchange         :  0.555779E-04  0.557041E-04 -0.112655E-03
   Pulay + GGA                   : -0.175765E-02 -0.177874E-02  0.351015E-02
   ----------------------------------------------------------------
   Total forces(   2)            : -0.297022E-03 -0.298107E-03  0.595248E-03


  Analytical stress tensor components [eV]         xx                  yy                  zz                  xy                  xz                  yz
  -----------------------------------------------------------------------------------------------------------------------------------------------------------
    Nuclear Hellmann-Feynman      :    -0.1644714975E+02   -0.1644738840E+02   -0.1644925259E+02   -0.7456164782E-03    0.4408818397E-03    0.4409479617E-03
    Multipole Hellmann-Feynman    :    -0.3789352859E+02   -0.3789352611E+02   -0.3790619832E+02   -0.2686800319E-02    0.1378216647E-02    0.1373148436E-02
    On-site Multipole corrections :    -0.2829193583E+00   -0.2829193613E+00   -0.2829167225E+00    0.7427507405E-06   -0.3707139250E-06   -0.3693622739E-06
    Strain deriv. of the orbitals :    -0.4823342350E+03   -0.4823339999E+03   -0.4823178973E+03    0.2165641879E-02   -0.1128078261E-02   -0.1125234117E-02
    Exact exchange derivative     :     0.3871380950E+01    0.3868871853E+01    0.3860792139E+01   -0.1422822009E-01    0.1677950876E-03    0.1673621176E-03
    Jacobian EXX contribution     :     0.5330882029E+03    0.5330882029E+03    0.5330882029E+03    0.0000000000E+00    0.0000000000E+00    0.0000000000E+00
  -----------------------------------------------------------------------------------------------------------------------------------------------------------
  Sum of all contributions        :     0.1751203948E-02   -0.7590441753E-03   -0.7269879923E-02   -0.1549425225E-01    0.8584445990E-03    0.8558550363E-03

  +-------------------------------------------------------------------+
  |              Analytical stress tensor - Symmetrized               |
  |                  Cartesian components [eV/A**3]                   |
  +-------------------------------------------------------------------+
  |                x                y                z                |
  |                                                                   |
  |  x         0.00004307      -0.00038110       0.00002111           |
  |  y        -0.00038110      -0.00001867       0.00002105           |
  |  z         0.00002111       0.00002105      -0.00017881           |
  |                                                                   |
  |  Pressure:       0.00005147   [eV/A**3]                           |
  |                                                                   |
  +-------------------------------------------------------------------+

 * Warning: Stress tensor is anisotropic. Be aware that pressure is an isotropic quantity.


  Self-consistency convergence accuracy:
  | Change of charge density      :  0.1346E-07
  | Change of sum of eigenvalues  :  0.1195E-05 eV
  | Change of total energy        : -0.4318E-07 eV
  | Change of forces              :  0.6471E-05 eV/A

  Writing Kohn-Sham eigenvalues.
  K-point:       1 at    0.000000    0.000000    0.000000 (in units of recip. lattice)

  State    Occupation    Eigenvalue [Ha]    Eigenvalue [eV]
      1       2.00000         -66.588725        -1811.97140
      2       2.00000         -66.588725        -1811.97140
      3       2.00000          -5.377995         -146.34270
      4       2.00000          -5.377674         -146.33396
      5       2.00000          -3.684276         -100.25425
      6       2.00000          -3.684276         -100.25425
      7       2.00000          -3.684275         -100.25422
      8       2.00000          -3.683679         -100.23802
      9       2.00000          -3.683679         -100.23800
     10       2.00000          -3.683678         -100.23798
     11       2.00000          -0.703227          -19.13579
     12       2.00000          -0.219779           -5.98048
     13       2.00000          -0.219720           -5.97888
     14       2.00000          -0.219716           -5.97878
     15       0.00000          -0.095753           -2.60557
     16       0.00000          -0.095724           -2.60478
     17       0.00000          -0.095695           -2.60399
     18       0.00000          -0.063753           -1.73480
     19       0.00000           0.109974            2.99255
     20       0.00000           0.110129            2.99678

  What follows are estimated values for band gap, HOMO, LUMO, etc.
  | They are estimated on a discrete k-point grid and not necessarily exact.
  | For converged numbers, create a DOS and/or band structure plot on a denser k-grid.

  Highest occupied state (VBM) at     -5.97877528 eV (relative to internal zero)
  | Occupation number:      2.00000000
  | K-point:       1 at    0.000000    0.000000    0.000000 (in units of recip. lattice)

  Lowest unoccupied state (CBM) at    -4.59215512 eV (relative to internal zero)
  | Occupation number:      0.00000000
  | K-point:     112 at    0.500000    0.000000    0.500000 (in units of recip. lattice)

  ESTIMATED overall HOMO-LUMO gap:      1.38662016 eV between HOMO at k-point 1 and LUMO at k-point 112
  | This appears to be an indirect band gap.
  | Smallest direct gap :      3.37320074 eV for k_point 1 at    0.000000    0.000000    0.000000 (in units of recip. lattice)
  The gap value is above 0.2 eV. Unless you are using a very sparse k-point grid,
  this system is most likely an insulator or a semiconductor.

  Self-consistency cycle converged.

  End self-consistency iteration #     8       :  max(cpu_time)    wall_clock(cpu1)
  | Time for this iteration                    :       75.376 s          75.379 s
  | Charge density & force component update    :        0.000 s           0.000 s
  | Density mixing                             :        0.001 s           0.001 s
  | Hartree multipole update                   :        0.001 s           0.001 s
  | Hartree multipole summation                :        0.673 s           0.673 s
  | Integration                                :        0.131 s           0.131 s
  | Fock matrix evaluation                     :       74.528 s          74.523 s
  | Solution of K.-S. eqns.                    :        0.041 s           0.041 s
  | Total energy evaluation                    :        0.001 s           0.000 s

  Partial memory accounting:
  | Current value for overall tracked memory usage:
  |   Minimum:       94.754 MB (on task 0)
  |   Maximum:       95.871 MB (on task 1)
  |   Average:       95.312 MB
  | Peak value for overall tracked memory usage:
  |   Minimum:      131.259 MB (on task 0 after allocating d_coeff_3fn)
  |   Maximum:      132.376 MB (on task 1 after allocating d_coeff_3fn)
  |   Average:      131.818 MB
  | Largest tracked array allocation so far:
  |   Minimum:       31.008 MB (d_aux_mat on task 0)
  |   Maximum:       31.008 MB (d_aux_mat on task 0)
  |   Average:       31.008 MB
  Note:  These values currently only include a subset of arrays which are explicitly tracked.
  The "true" memory usage will be greater.
------------------------------------------------------------
  Removing unitary transformations (pure translations, rotations) from forces on atoms.
  Atomic forces before filtering:
  | Net force on center of mass :   0.244208E-07  0.308393E-07 -0.145041E-07 eV/A
  Atomic forces after filtering:
  | Net force on center of mass :   0.000000E+00  0.000000E+00 -0.174225E-18 eV/A

  Energy and forces in a compact form:
  | Total energy uncorrected      :         -0.158047316124178E+05 eV
  | Total energy corrected        :         -0.158047316124178E+05 eV  <-- do not rely on this value for anything but (periodic) metals
  | Electronic free energy        :         -0.158047316124178E+05 eV
  Total atomic forces (unitary forces cleaned) [eV/Ang]:
  |    1          0.297034365960017E-03          0.298122554854089E-03         -0.595255680964640E-03
  |    2         -0.297034365960017E-03         -0.298122554854089E-03          0.595255680964640E-03

  ------------------------------------ 
  Start decomposition of the XC Energy 
  ------------------------------------ 
  X and C from original XC functional choice 
  Hartree-Fock Energy :         -9.795315686 Ha           -266.544101432 eV
  X Energy            :        -40.776713956 Ha          -1109.590842092 eV
  C Energy            :         -1.093550856 Ha            -29.757032805 eV
  Total XC Energy     :        -41.870264811 Ha          -1139.347874896 eV
  ------------------------------------ 
  LDA X and C from self-consistent density 
  X Energy LDA        :        -37.640472869 Ha          -1024.249379990 eV
  C Energy LDA        :         -2.146108911 Ha            -58.398594757 eV
  ------------------------------------ 
  End decomposition of the XC Energy 
  ------------------------------------ 

------------------------------------------------------------
  Relaxation / MD: End force evaluation.       :  max(cpu_time)    wall_clock(cpu1)
  | Time for this force evaluation             :      152.118 s         152.130 s

------------------------------------------------------------
  Geometry optimization: Attempting to predict improved coordinates.

  +-------------------------------------------------------------------+
  | Generalized derivatives on lattice vectors [eV/A]                 |
  +-------------------------------------------------------------------+
  |lattice_vector      -0.00300249       0.00285625      -0.00133213  |
  |lattice_vector       0.00331667      -0.00254308      -0.00133118  |
  |lattice_vector      -0.00267517      -0.00313460       0.00164601  |
  +-------------------------------------------------------------------+
  | Forces on lattice vectors cleaned from atomic contributions [eV/A]|
  +-------------------------------------------------------------------+
  |lattice_vector       0.00300249      -0.00285625       0.00133213  |
  |lattice_vector      -0.00331667       0.00254308       0.00133118  |
  |lattice_vector       0.00267517       0.00313460      -0.00164601  |
  +-------------------------------------------------------------------+
  Removing unitary transformations (pure translations, rotations) from forces on atoms.
  Atomic forces before filtering:
  | Net force on center of mass :   0.000000E+00  0.000000E+00 -0.174225E-18 eV/A
  Atomic forces after filtering:
  | Net force on center of mass :   0.000000E+00  0.000000E+00  0.000000E+00 eV/A
  Net remaining forces (excluding translations, rotations) in present geometry:
  || Forces on atoms   || =   0.595256E-03 eV/A.
  || Forces on lattice || =   0.331667E-02 eV/A^3.
  Maximum force component is  0.331667E-02 eV/A.
  Present geometry is converged.

------------------------------------------------------------
  Final atomic structure:
                         x [A]             y [A]             z [A]
  lattice_vector         0.00017244        2.72924830        2.72942113
  lattice_vector         2.72924887        0.00017302        2.72942151
  lattice_vector         2.72890322        2.72890302       -0.00034546

            atom         0.00000000       -0.00000000       -0.00000000  Si
            atom         1.36458113        1.36458109        1.36462430  Si

  Fractional coordinates:
                         L1                L2                L3
       atom_frac        -0.00000000        0.00000000        0.00000000  Si
       atom_frac         0.25000000        0.25000000        0.25000000  Si
------------------------------------------------------------

------------------------------------------------------------------------------
  Final output of selected total energy values:

  The following output summarizes some interesting total energy values
  at the end of a run (AFTER all relaxation, molecular dynamics, etc.).

  | Total energy of the DFT / Hartree-Fock s.c.f. calculation      :         -15804.731612418 eV
  | Final zero-broadening corrected energy (caution - metals only) :         -15804.731612418 eV
  | For reference only, the value of 1 Hartree used in FHI-aims is :             27.211384500 eV
  | For reference only, the overall average (free atom contribution
  | + realspace contribution) of the electrostatic potential after
  | s.c.f. convergence is                                          :            -12.627594535 eV

  Before relying on these values, please be sure to understand exactly which
  total energy value is referred to by a given number. Different objects may
  all carry the same name 'total energy'. Definitions:

  Total energy of the DFT / Hartree-Fock s.c.f. calculation:
  | Note that this energy does not include ANY quantities calculated after the
  | s.c.f. cycle, in particular not ANY RPA, MP2, etc. many-body perturbation terms.

  Final zero-broadening corrected energy:
  | For metallic systems only, a broadening of the occupation numbers at the Fermi
  | level can be extrapolated back to zero broadening by an electron-gas inspired
  | formula. For all systems that are not real metals, this value can be
  | meaningless and should be avoided.

------------------------------------------------------------------------------
  Methods described in the following list of references were used in this FHI-aims run.
  If you publish the results, please make sure to cite these reference if they apply.
  FHI-aims is an academic code, and for our developers (often, Ph.D. students
  and postdocs), scientific credit in the community is essential.
  Thank you for helping us!

  For any use of FHI-aims, please cite:

    Volker Blum, Ralf Gehrke, Felix Hanke, Paula Havu, Ville Havu,
    Xinguo Ren, Karsten Reuter, and Matthias Scheffler
    'Ab initio molecular simulations with numeric atom-centered orbitals'
    Computer Physics Communications 180, 2175-2196 (2009)
    http://dx.doi.org/10.1016/j.cpc.2009.06.022


  For the analytical stress tensor used in your run, please cite:

    Franz Knuth, Christian Carbogno, Viktor Atalla, Volker Blum, Matthias Scheffler
    'All-electron formalism for total energy strain derivatives and
    stress tensor components for numeric atom-centered orbitals'
    Computer Physics Communications 190, 33-50 (2015).
    http://dx.doi.org/10.1016/j.cpc.2015.01.003


  For Hartree-Fock, hybrid functionals, or many-body perturbation theory used in your run, please cite:

    Xinguo Ren, Patrick Rinke, Volker Blum, Juergen Wieferink, Alex Tkatchenko,
    Andrea Sanfilippo, Karsten Reuter, and Matthias Scheffler,
    'Resolution-of-identity approach to Hartree-Fock, hybrid density functionals,
    RPA, MP2, and GW with numeric atom-centered orbital basis functions'
    New Journal of Physics 14, 053020 (2012).
    http://dx.doi.org/10.1088/1367-2630/14/5/053020


  The provided symmetry information was generated with SPGlib:

    Atsushi Togo, Yusuke Seto, Dimitar Pashov
    SPGlib 1.7.3 obtained from http://spglib.sourceforge.net
    Copyright (C) 2008 Atsushi Togo


  The ELSI infrastructure was used in your run to solve the Kohn-Sham electronic structure.
  Please check out http://elsi-interchange.org to learn more.
  If scalability is important for your project, please acknowledge ELSI by citing:

    V. W-z. Yu, F. Corsetti, A. Garcia, W. P. Huhn, M. Jacquelin, W. Jia,
    B. Lange, L. Lin, J. Lu, W. Mi, A. Seifitokaldani, A. Vazquez-Mayagoitia,
    C. Yang, H. Yang, and V. Blum
    'ELSI: A unified software interface for Kohn-Sham electronic structure solvers'
    Computer Physics Communications 222, 267-285 (2018).
    http://dx.doi.org/10.1016/j.cpc.2017.09.007


  For the real-space grid partitioning and parallelization used in this calculation, please cite:

    Ville Havu, Volker Blum, Paula Havu, and Matthias Scheffler,
    'Efficient O(N) integration for all-electron electronic structure calculation'
    'using numerically tabulated basis functions'
    Journal of Computational Physics 228, 8367-8379 (2009).
    http://dx.doi.org/10.1016/j.jcp.2009.08.008


  The high-level electronic structure method used in your calculation
  employed our efficient localized resolution of identity for the Coulomb operator.
  Some calculations, especially large-scale hybrid density functional theory,
  are only possible thanks to this development. For this feature, please cite:

    Arvid Ihrig, Juergen Wieferink, Igor Ying Zhang, Matti Ropo, Xinguo Ren,
    Patrick Rinke, Matthias Scheffler, and Volker Blum,
    'Accurate localized resolution of identity approach for linear-scaling
    hybrid density functionals and for many-body perturbation theory'
    New Journal of Physics 117, 093020 (2015).
    http://dx.doi.org/10.1088/1367-2630/17/9/093020

  Of course, there are many other important community references, e.g., those cited in the
  above references. Our list is limited to references that describe implementations in the
  FHI-aims code. The reason is purely practical (length of this list) - please credit others as well.

------------------------------------------------------------
          Leaving FHI-aims.
          Date     :  20210824, Time     :  191606.400

          Computational steps:
          | Number of self-consistency cycles          :           22
          | Number of SCF (re)initializations          :            2
          | Number of relaxation steps                 :            1

          Detailed time accounting                     :  max(cpu_time)    wall_clock(cpu1)
          | Total time                                 :      329.152 s         329.164 s
          | Preparation time                           :        0.218 s           0.218 s
          | Boundary condition initalization           :        0.121 s           0.121 s
          | Grid partitioning                          :        0.041 s           0.041 s
          | Preloading free-atom quantities on grid    :        0.175 s           0.174 s
          | Free-atom superposition energy             :        0.024 s           0.024 s
          | Total time for integrations                :        3.409 s           3.408 s
          | Product basis setup: Total time            :       53.730 s          53.732 s
          | Total time evaluating exchange matrix      :      248.569 s         248.582 s
          | Total time for solution of K.-S. equations :        0.931 s           0.931 s
          | Total time for EV reorthonormalization     :        0.006 s           0.005 s
          | Total time for density & force components  :       16.223 s          16.223 s
          | Total time for mixing                      :        0.017 s           0.019 s
          | Total time for Hartree multipole update    :        0.023 s           0.023 s
          | Total time for Hartree multipole sum       :        5.509 s           5.508 s
          | Total time for total energy evaluation     :        0.011 s           0.005 s
          | Total time for scaled ZORA corrections     :        0.000 s           0.000 s

          Partial memory accounting:
          | Residual value for overall tracked memory usage across tasks:     0.000000 MB (should be 0.000000 MB)
          | Peak values for overall tracked memory usage:
          |   Minimum:      131.259 MB (on task 0 after allocating d_coeff_3fn)
          |   Maximum:      132.376 MB (on task 1 after allocating d_coeff_3fn)
          |   Average:      131.818 MB
          | Largest tracked array allocation:
          |   Minimum:       31.008 MB (d_aux_mat on task 0)
          |   Maximum:       31.008 MB (d_aux_mat on task 0)
          |   Average:       31.008 MB
          Note:  These values currently only include a subset of arrays which are explicitly tracked.
          The "true" memory usage will be greater.

          Have a nice day.
------------------------------------------------------------
