------------------------------------------------------------
          Invoking FHI-aims ...

          When using FHI-aims, please cite the following reference:

            Volker Blum, Ralf Gehrke, Felix Hanke, Paula Havu,
            Ville Havu, Xinguo Ren, Karsten Reuter, and Matthias Scheffler,
            'Ab Initio Molecular Simulations with Numeric Atom-Centered Orbitals',
            Computer Physics Communications 180, 2175-2196 (2009)

          In addition, many other developments in FHI-aims are likely important for
          your particular application. A partial list of references is given at the end of
          this file. Thank you for giving credit to the authors of these developments.

          For any questions about FHI-aims, please visit our slack channel at

            https://fhi-aims.slack.com

          and our main development and support site at

            https://aims-git.rz-berlin.mpg.de .

          The latter site, in particular, has a wiki to collect information, as well
          as an issue tracker to log discussions, suggest improvements, and report issues
          or bugs. https://aims-git.rz-berlin.mpg.de is also the main development site
          of the project and all new and updated code versions can be obtained there.
          Please send an email to aims-coordinators@fhi-berlin.mpg.de and we will add
          you to these sites. They are for you and everyone is welcome there.

------------------------------------------------------------



  Date     :  20210825, Time     :  112306.546
  Time zero on CPU 1             :   0.286620000000000E-01  s.
  Internal wall clock time zero  :           399122586.546  s.

  FHI-aims created a unique identifier for this run for later identification
  aims_uuid : 1EDFF609-F6E5-4A77-A460-7599A8DA5460

  Build configuration of the current instance of FHI-aims
  -------------------------------------------------------
  FHI-aims version      : 210226
  Commit number         : GITDIR-NOTFOUND
  CMake host system     : Linux-3.10.0-514.6.1.el7.x86_64
  CMake version         : 3.8.0-rc1
  Fortran compiler      : /apps/intel2018/compilers_and_libraries/linux/mpi/intel64/bin/mpiifort (Intel) version 18.0.5.20180823
  Fortran compiler flags: -fc=ifort -O3 -ip -fp-model precise -xCORE-AVX2 -qopt-zmm-usage=high
  C compiler            : /apps/intel2018/compilers_and_libraries_2018.5.274/linux/mpi/intel64/bin/mpiicc (Intel) version 18.0.5.20180823
  C compiler flags      : -O3 -ip -fp-model precise -std=gnu99 -xCORE-AVX2 -qopt-zmm-usage=high
  ELPA2 kernel          : AVX2
  Using MPI
  Using ScaLAPACK
  Using LibXC
  Using i-PI
  Using RLSY
  Linking against: /apps/intel2018/compilers_and_libraries_2018.5.274/linux/mkl/lib/intel64_lin/libmkl_intel_lp64.so
                   /apps/intel2018/compilers_and_libraries_2018.5.274/linux/mkl/lib/intel64_lin/libmkl_sequential.so
                   /apps/intel2018/compilers_and_libraries_2018.5.274/linux/mkl/lib/intel64_lin/libmkl_core.so
                   /apps/intel2018/compilers_and_libraries_2018.5.274/linux/mkl/lib/intel64_lin/libmkl_blacs_intelmpi_lp64.so
                   /apps/intel2018/compilers_and_libraries_2018.5.274/linux/mkl/lib/intel64_lin/libmkl_scalapack_lp64.so

  Using        8 parallel tasks.
  Task        0 on host mercury reporting.
  Task        1 on host mercury reporting.
  Task        2 on host mercury reporting.
  Task        3 on host mercury reporting.
  Task        4 on host mercury reporting.
  Task        5 on host mercury reporting.
  Task        6 on host mercury reporting.
  Task        7 on host mercury reporting.

  Performing system and environment tests:
  | Environment variable OMP_NUM_THREADS correctly set to 1.
  | Checking for ScaLAPACK...
  | Testing pdtran()...
  | All pdtran() tests passed.

  Obtaining array dimensions for all initial allocations:
  
  -----------------------------------------------------------------------
  Parsing control.in (first pass over file, find array dimensions only).
  The contents of control.in will be repeated verbatim below
  unless switched off by setting 'verbatim_writeout .false.' .
  in the first line of control.in .
  -----------------------------------------------------------------------
  
  xc                         hse06 0.11
  hse_unit                   bohr
  hybrid_xc_coeff            0.25
  exx_band_structure_version 1
  relativistic               atomic_zora scalar
  k_grid                     12 12 12
  output                     dos_tetrahedron -20 10 15001
  output                     band   0.00000  0.00000  0.00000   0.50000  0.00000  0.50000   35 G  X
  output                     band   0.50000  0.00000  0.50000   0.50000  0.25000  0.75000   17 X  W
  output                     band   0.50000  0.25000  0.75000   0.37500  0.37500  0.75000   12 W  K
  output                     band   0.37500  0.37500  0.75000   0.00000  0.00000  0.00000   37 K  G
  output                     band   0.00000  0.00000  0.00000   0.50000  0.50000  0.50000   30 G  L
  output                     band   0.50000  0.50000  0.50000   0.62500  0.25000  0.62500   21 L  U
  output                     band   0.62500  0.25000  0.62500   0.50000  0.25000  0.75000   12 U  W
  output                     band   0.50000  0.25000  0.75000   0.50000  0.50000  0.50000   24 W  L
  output                     band   0.50000  0.50000  0.50000   0.37500  0.37500  0.75000   21 L  K
  output                     band   0.62500  0.25000  0.62500   0.50000  0.00000  0.50000   12 U  X
  ################################################################################
  #
  #  FHI-aims code project
  #  VB, Fritz-Haber Institut, 2009
  #
  #  Suggested "light" defaults for Ga atom (to be pasted into control.in file)
  #  Be sure to double-check any results obtained with these settings for post-processing,
  #  e.g., with the "tight" defaults and larger basis sets.
  #
  ################################################################################
    species        Ga
  #     global species definitions
      nucleus             31
      mass                69.723
  #
      l_hartree           4
  #
      cut_pot             3.5          1.5  1.0
      basis_dep_cutoff    1e-4
  #
      radial_base         54 5.0
      radial_multiplier   1
      angular_grids       specified
        division   0.5103   50
        division   0.8880  110
        division   1.2009  194
        division   1.5000  302
  #      division   1.7093  434
  #      division   1.8791  590
  #      division   1.9525  770
  #      division   2.3801 1202
  #      outer_grid  1202
        outer_grid  302
  ################################################################################
  #
  #  Definition of "minimal" basis
  #
  ################################################################################
  #     valence basis states
      valence      4  s   2.
      valence      4  p   1.
      valence      3  d  10.
  #     ion occupancy
      ion_occ      4  s   1.
      ion_occ      3  p   6.
      ion_occ      3  d  10.
  ################################################################################
  #
  #  Suggested additional basis functions. For production calculations,
  #  uncomment them one after another (the most important basis functions are
  #  listed first).
  #
  #  Constructed for dimers: 1.85 A, 2.10 A, 2.45 A, 3.00 A, 4.00 A
  #
  ################################################################################
  #  "First tier" - improvements: -222.33 meV to -26.19 meV
       hydro 2 p 1.2
       hydro 3 d 3.8
  #     hydro 4 f 6.8
       ionic 4 s auto
  #  "Second tier" - improvements: -11.68 meV to -1.61 meV
  #     hydro 5 g 10
  #     hydro 4 p 3.6
  #     hydro 4 f 13.2
  #     hydro 6 h 14.4
  #     hydro 4 d 5.2
  #     hydro 1 s 0.45
  #  "Third tier" - improvements: -0.64 meV to -0.15 meV
  #     hydro 3 p 3.4
  #     hydro 3 s 2.2
  #     hydro 5 g 14
  #     hydro 4 f 6.2
  #     hydro 5 d 7.2
  #  "Fourth tier"  -improvements: -0.12 meV and below
  #     hydro 3 s 3.8
  #     hydro 5 f 27.2
  #     hydro 6 h 16
  #     hydro 5 g 9.2
  #     hydro 4 d 8.6
  #     hydro 2 p 3.6
  
  ################################################################################
  #
  #  FHI-aims code project
  #  VB, Fritz-Haber Institut, 2009
  #
  #  Suggested "light" defaults for As atom (to be pasted into control.in file)
  #  Be sure to double-check any results obtained with these settings for post-processing,
  #  e.g., with the "tight" defaults and larger basis sets.
  #
  ################################################################################
    species        As
  #
      nucleus             33
      mass                74.92160
  #
      l_hartree           4
  #
      cut_pot             3.5          1.5  1.0
      basis_dep_cutoff    1e-4
  #
      radial_base         55 5.0
      radial_multiplier   1
      angular_grids       specified
        division   0.4982   50
        division   0.9113  110
        division   1.1593  194
        division   1.4959  302
  #      division   1.6697  434
  #      division   1.8319  590
  #      division   1.9752  770
  #      division   2.0131  974
  #      division   2.4015 1202
  #      outer_grid  1202
        outer_grid  302
  ################################################################################
  #
  #  Definition of "minimal" basis
  #
  ################################################################################
  #     valence basis states
      valence      4  s   2.
      valence      4  p   3.
      valence      3  d  10.
  #     ion occupancy
      ion_occ      4  s   1.
      ion_occ      4  p   2.
      ion_occ      3  d  10.
  ################################################################################
  #
  #  Suggested additional basis functions. For production calculations,
  #  uncomment them one after another (the most important basis functions are
  #  listed first).
  #
  #  Constructed for dimers: 1.75 A, 2.10 A, 2.50 A, 3.00 A, 4.00 A
  #
  ################################################################################
  #  "First tier" - improvements: -385.12 meV to -54.94 meV
       hydro 3 d 4
       hydro 2 p 1.5
  #     hydro 4 f 6.8
       ionic 4 s auto
  #  "Second tier" - improvements: -22.14 meV to -3.21 meV
  #     hydro 5 g 10
  #     hydro 6 h 13.6
  #     hydro 4 p 4.3
  #     hydro 4 f 15.6
  #     hydro 4 d 5.4
  #     hydro 1 s 0.6
  #  "Third tier" - improvements: -0.57 meV to -0.13 meV
  #     hydro 5 g 16.4
  #     hydro 4 f 7.4
  #     hydro 5 d 7.4
  #     ionic 4 p auto
  #     hydro 3 s 2.6
  #  "Fourth tier" - improvements: -0.30 meV and below
  #     hydro 3 p 3
  #     hydro 6 h 18.4
  #     hydro 5 d 11.2
  #     hydro 5 f 15.2
  #     hydro 5 g 13.6
  #     hydro 5 s 6.2
  ################################################################################
  #
  #  FHI-aims code project
  #  VB, Fritz-Haber Institut, 2009
  #
  #  Suggested "light" defaults for Si atom (to be pasted into control.in file)
  #  Be sure to double-check any results obtained with these settings for post-processing,
  #  e.g., with the "tight" defaults and larger basis sets.
  #
  ################################################################################
    species        Si
  #     global species definitions
      nucleus             14
      mass                28.0855
  #
      l_hartree           4
  #
      cut_pot             3.5          1.5  1.0
      basis_dep_cutoff    1e-4
  #
      radial_base         42 5.0
      radial_multiplier   1
      angular_grids       specified
        division   0.5866   50
        division   0.9616  110
        division   1.2249  194
        division   1.3795  302
  #      division   1.4810  434
  #      division   1.5529  590
  #      division   1.6284  770
  #      division   1.7077  974
  #      division   2.4068 1202
  #      outer_grid   974
        outer_grid 302
  ################################################################################
  #
  #  Definition of "minimal" basis
  #
  ################################################################################
  #     valence basis states
      valence      3  s   2.
      valence      3  p   2.
  #     ion occupancy
      ion_occ      3  s   1.
      ion_occ      3  p   1.
  ################################################################################
  #
  #  Suggested additional basis functions. For production calculations,
  #  uncomment them one after another (the most important basis functions are
  #  listed first).
  #
  #  Constructed for dimers: 1.75 A, 2.0 A, 2.25 A, 2.75 A, 3.75 A
  #
  ################################################################################
  #  "First tier" - improvements: -571.96 meV to -37.03 meV
       hydro 3 d 4.2
       hydro 2 p 1.4
  #     hydro 4 f 6.2
       ionic 3 s auto
  #  "Second tier" - improvements: -16.76 meV to -3.03 meV
  #     hydro 3 d 9
  #     hydro 5 g 9.4
  #     hydro 4 p 4
  #     hydro 1 s 0.65
  #  "Third tier" - improvements: -3.89 meV to -0.60 meV
  #     ionic 3 d auto
  #     hydro 3 s 2.6
  #     hydro 4 f 8.4
  #     hydro 3 d 3.4
  #     hydro 3 p 7.8
  #  "Fourth tier" - improvements: -0.33 meV to -0.11 meV
  #     hydro 2 p 1.6
  #     hydro 5 g 10.8
  #     hydro 5 f 11.2
  #     hydro 3 d 1
  #     hydro 4 s 4.5
  #  Further basis functions that fell out of the optimization - noise
  #  level... < -0.08 meV
  #     hydro 4 d 6.6
  #     hydro 5 g 16.4
  #     hydro 4 d 9
  
  -----------------------------------------------------------------------
  Completed first pass over input file control.in .
  -----------------------------------------------------------------------
  
  
  -----------------------------------------------------------------------
  Parsing geometry.in (first pass over file, find array dimensions only).
  The contents of geometry.in will be repeated verbatim below
  unless switched off by setting 'verbatim_writeout .false.' .
  in the first line of geometry.in .
  -----------------------------------------------------------------------
  
  #
  # This is the geometry file that corresponds to the current relaxation step.
  # If you do not want this file to be written, set the "write_restart_geometry" flag to .false.
  #  aims_uuid : AAC8C961-D0E7-4F48-A9BA-DA839B3AA6F5
  #
  lattice_vector      0.00017244      2.72924830      2.72942113
  lattice_vector      2.72924887      0.00017302      2.72942151
  lattice_vector      2.72890322      2.72890302     -0.00034546
  atom_frac      -0.00000000      0.00000000      0.00000000 Si
  atom_frac       0.25000000      0.25000000      0.25000000 Si
  #
  # What follows is the current estimated Hessian matrix constructed by the BFGS algorithm.
  # This is NOT the true Hessian matrix of the system.
  # If you do not want this information here, switch it off using the "hessian_to_restart_geometry" keyword.
  #
  trust_radius             0.2000000030
  hessian_file
  
  -----------------------------------------------------------------------
  Completed first pass over input file geometry.in .
  -----------------------------------------------------------------------
  

  Basic array size parameters:
  | Number of species                 :        3
  | Number of atoms                   :        2
  | Number of lattice vectors         :        3
  | Max. basis fn. angular momentum   :        2
  | Max. atomic/ionic basis occupied n:        4
  | Max. number of basis fn. types    :        3
  | Max. radial fns per species/type  :        8
  | Max. logarithmic grid size        :     1417
  | Max. radial integration grid size :       55
  | Max. angular integration grid size:      302
  | Max. angular grid division number :        8
  | Radial grid for Hartree potential :     1417
  | Number of spin channels           :        1

------------------------------------------------------------
          Reading file control.in.
------------------------------------------------------------

  XC: Using HSE-functional with OMEGA =  0.110000E+00 <units>.
  XC: For the actual units (bohr^-1 or Angstrom^-1), see below.
  hse_unit: Unit for the HSE06 hybrid functional screening parameter set to bohr^(-1).
  hybrid_xc_coeff: Mixing coefficient for hybrid-functional exact exchange modified to         0.25000000 .
  * WARNING: This change modifies the chosen exchange-correlation functional (keyword 'xc')
  * from its literature definition. Be sure to NEVER include such a line in any default control.in files!
  Scalar relativistic treatment of kinetic energy: on-site free-atom approximation to ZORA.
  Found k-point grid:        12        12        12
  Calculating density of states with
  | energy interval :-20.000000 10.000000
  | points & tetrahedron method : 15001

  Plot band    1
  | begin  0.000000  0.000000  0.000000
  | end    0.500000  0.000000  0.500000
  | number of points:   35

  Plot band    2
  | begin  0.500000  0.000000  0.500000
  | end    0.500000  0.250000  0.750000
  | number of points:   17

  Plot band    3
  | begin  0.500000  0.250000  0.750000
  | end    0.375000  0.375000  0.750000
  | number of points:   12

  Plot band    4
  | begin  0.375000  0.375000  0.750000
  | end    0.000000  0.000000  0.000000
  | number of points:   37

  Plot band    5
  | begin  0.000000  0.000000  0.000000
  | end    0.500000  0.500000  0.500000
  | number of points:   30

  Plot band    6
  | begin  0.500000  0.500000  0.500000
  | end    0.625000  0.250000  0.625000
  | number of points:   21

  Plot band    7
  | begin  0.625000  0.250000  0.625000
  | end    0.500000  0.250000  0.750000
  | number of points:   12

  Plot band    8
  | begin  0.500000  0.250000  0.750000
  | end    0.500000  0.500000  0.500000
  | number of points:   24

  Plot band    9
  | begin  0.500000  0.500000  0.500000
  | end    0.375000  0.375000  0.750000
  | number of points:   21

  Plot band   10
  | begin  0.625000  0.250000  0.625000
  | end    0.500000  0.000000  0.500000
  | number of points:   12
 
  Reading configuration options for species Ga                  .
  | Found nuclear charge :  31.0000
  | Found atomic mass :    69.7230000000000      amu
  | Found l_max for Hartree potential  :   4
  | Found cutoff potl. onset [A], width [A], scale factor :    3.50000    1.50000    1.00000
  | Threshold for basis-dependent cutoff potential is   0.100000E-03
  | Found data for basic radial integration grid :    54 points, outermost radius =    5.000 A
  | Found multiplier for basic radial grid :   1
  | Found angular grid specification: user-specified.
  | Specified grid contains     5 separate shells.
  | Check grid settings after all constraints further below.
  | Found free-atom valence shell :  4 s   2.000
  | Found free-atom valence shell :  4 p   1.000
  | Found free-atom valence shell :  3 d  10.000
  | Found free-ion valence shell :  4 s   1.000
  | Found free-ion valence shell :  3 p   6.000
  | Found free-ion valence shell :  3 d  10.000
  | Found hydrogenic basis function :  2 p   1.200
  | Found hydrogenic basis function :  3 d   3.800
  | Found ionic basis function :  4 s , default cutoff radius.
  Species Ga                  : Missing cutoff potential type.
  Defaulting to exp(1/x)/(1-x)^2 type cutoff potential.
  Species Ga: No 'logarithmic' tag. Using default grid for free atom:
  | Default logarithmic grid data [bohr] : 0.1000E-03 0.1000E+03 0.1012E+01
  | Will include ionic basis functions of  2.0-fold positive Ga                   ion.
  Species Ga: On-site basis accuracy parameter (for Gram-Schmidt orthonormalisation) not specified.
  Using default value basis_acc =  0.1000000E-03.
  Species Ga                  : Using default innermost maximum threshold i_radial=  2 for radial functions.
  Species Ga                  : Default cutoff onset for free atom density etc. : 0.35000000E+01 AA.
  Species Ga                  : Basic radial grid will be enhanced according to radial_multiplier =   1, to contain    54 grid points.
 
  Reading configuration options for species As                  .
  | Found nuclear charge :  33.0000
  | Found atomic mass :    74.9216000000000      amu
  | Found l_max for Hartree potential  :   4
  | Found cutoff potl. onset [A], width [A], scale factor :    3.50000    1.50000    1.00000
  | Threshold for basis-dependent cutoff potential is   0.100000E-03
  | Found data for basic radial integration grid :    55 points, outermost radius =    5.000 A
  | Found multiplier for basic radial grid :   1
  | Found angular grid specification: user-specified.
  | Specified grid contains     5 separate shells.
  | Check grid settings after all constraints further below.
  | Found free-atom valence shell :  4 s   2.000
  | Found free-atom valence shell :  4 p   3.000
  | Found free-atom valence shell :  3 d  10.000
  | Found free-ion valence shell :  4 s   1.000
  | Found free-ion valence shell :  4 p   2.000
  | Found free-ion valence shell :  3 d  10.000
  | Found hydrogenic basis function :  3 d   4.000
  | Found hydrogenic basis function :  2 p   1.500
  | Found ionic basis function :  4 s , default cutoff radius.
  Species As                  : Missing cutoff potential type.
  Defaulting to exp(1/x)/(1-x)^2 type cutoff potential.
  Species As: No 'logarithmic' tag. Using default grid for free atom:
  | Default logarithmic grid data [bohr] : 0.1000E-03 0.1000E+03 0.1012E+01
  | Will include ionic basis functions of  2.0-fold positive As                   ion.
  Species As: On-site basis accuracy parameter (for Gram-Schmidt orthonormalisation) not specified.
  Using default value basis_acc =  0.1000000E-03.
  Species As                  : Using default innermost maximum threshold i_radial=  2 for radial functions.
  Species As                  : Default cutoff onset for free atom density etc. : 0.35000000E+01 AA.
  Species As                  : Basic radial grid will be enhanced according to radial_multiplier =   1, to contain    55 grid points.
 
  Reading configuration options for species Si                  .
  | Found nuclear charge :  14.0000
  | Found atomic mass :    28.0855000000000      amu
  | Found l_max for Hartree potential  :   4
  | Found cutoff potl. onset [A], width [A], scale factor :    3.50000    1.50000    1.00000
  | Threshold for basis-dependent cutoff potential is   0.100000E-03
  | Found data for basic radial integration grid :    42 points, outermost radius =    5.000 A
  | Found multiplier for basic radial grid :   1
  | Found angular grid specification: user-specified.
  | Specified grid contains     5 separate shells.
  | Check grid settings after all constraints further below.
  | Found free-atom valence shell :  3 s   2.000
  | Found free-atom valence shell :  3 p   2.000
  | Found free-ion valence shell :  3 s   1.000
  | Found free-ion valence shell :  3 p   1.000
  | Found hydrogenic basis function :  3 d   4.200
  | Found hydrogenic basis function :  2 p   1.400
  | Found ionic basis function :  3 s , default cutoff radius.
  Species Si                  : Missing cutoff potential type.
  Defaulting to exp(1/x)/(1-x)^2 type cutoff potential.
  Species Si: No 'logarithmic' tag. Using default grid for free atom:
  | Default logarithmic grid data [bohr] : 0.1000E-03 0.1000E+03 0.1012E+01
  | Will include ionic basis functions of  2.0-fold positive Si                   ion.
  Species Si: On-site basis accuracy parameter (for Gram-Schmidt orthonormalisation) not specified.
  Using default value basis_acc =  0.1000000E-03.
  Species Si                  : Using default innermost maximum threshold i_radial=  2 for radial functions.
  Species Si                  : Default cutoff onset for free atom density etc. : 0.35000000E+01 AA.
  Species Si                  : Basic radial grid will be enhanced according to radial_multiplier =   1, to contain    42 grid points.
 
  Finished reading input file 'control.in'.
 
------------------------------------------------------------


------------------------------------------------------------
          Reading geometry description geometry.in.
------------------------------------------------------------
 * Large trust radius value found - resetting to the current value of max_atomic_move,      0.20000000 A.
  Found keyword 'hessian_file', indicating that this is the continuation of a structure optimization.
  However, the control.in file does not request the geometry to be optimized.
  Ignoring the request for a file 'hessian.aims' to be present.
  | The smallest distance between any two atoms is         2.36344908 AA.
  | The first atom of this pair is atom number                      1 .
  | The second atom of this pair is atom number                     2 .
  | Wigner-Seitz cell of the first atom image           0     0     1 .
  | (The Wigner-Seitz cell of the second atom is 0 0 0  by definition.)

  Symmetry information by spglib:
  | Precision set to  0.1E-04
  | Number of Operations  : 4
  | Space group           : 12
  | International         : C2/m
  | Schoenflies           : C2h^3
  Input structure read successfully.
  The structure contains        2 atoms,  and a total of         28.000 electrons.

  Input geometry:
  | Unit cell:
  |        0.00017244        2.72924830        2.72942113
  |        2.72924887        0.00017302        2.72942151
  |        2.72890322        2.72890302       -0.00034546
  | Atomic structure:
  |       Atom                x [A]            y [A]            z [A]
  |    1: Species Si            0.00000000        0.00000000        0.00000000
  |    2: Species Si            1.36458113        1.36458108        1.36462430

  Lattice parameters for 3D lattice (in Angstroms) :     3.859862    3.859863    3.859252
  Angle(s) between unit vectors (in degrees)       :    60.003136   60.003147   59.993719


  Quantities derived from the lattice vectors:
  | Reciprocal lattice vector 1: -1.151083  1.151229  1.150938
  | Reciprocal lattice vector 2:  1.151229 -1.151083  1.150938
  | Reciprocal lattice vector 3:  1.151156  1.151156 -1.151156
  | Unit cell volume                               :   0.406567E+02  A^3

  Fractional coordinates:
                         L1                L2                L3
       atom_frac         0.00000000        0.00000000        0.00000000  Si
       atom_frac         0.25000000        0.25000000        0.25000000  Si

 
  Finished reading input file 'control.in'.
 

------------------------------------------------------------
          Reading geometry description geometry.in.
------------------------------------------------------------
 
  Consistency checks for stacksize environment parameter are next.
 
  | Maximum stacksize for task 0: unlimited
  | Maximum stacksize for task 1: unlimited
  | Maximum stacksize for task 2: unlimited
  | Maximum stacksize for task 3: unlimited
  | Maximum stacksize for task 4: unlimited
  | Maximum stacksize for task 5: unlimited
  | Maximum stacksize for task 6: unlimited
  | Maximum stacksize for task 7: unlimited
  | Current stacksize for task 0: unlimited
  | Current stacksize for task 1: unlimited
  | Current stacksize for task 2: unlimited
  | Current stacksize for task 3: unlimited
  | Current stacksize for task 4: unlimited
  | Current stacksize for task 5: unlimited
  | Current stacksize for task 6: unlimited
  | Current stacksize for task 7: unlimited
 
  Consistency checks for the contents of control.in are next.
 
  HSE06 screening parameters: omega_HF  =      0.11000000 bohr^-1, and
                              omega_PBE =      0.11000000 bohr^-1.
  MPI_IN_PLACE appears to work with this MPI implementation.
  | Keeping use_mpi_in_place .true. (see manual).
  Explicit treatment of the Coulomb operator is needed, but the RI method is not specified.
  Coulomb operator: Defaulting to 'LVL fast' resolution of identity - RI_type = LVL_fast
  Species Ga: Using default value for prodbas_acc =   1.000000E-04.
  Species Ga: Using default value max_l_prodbas =    20.
  Species As: Using default value for prodbas_acc =   1.000000E-04.
  Species As: Using default value max_l_prodbas =    20.
  Species Si: Using default value for prodbas_acc =   1.000000E-04.
  Species Si: Using default value max_l_prodbas =    20.
  Target number of points in a grid batch is not set. Defaulting to  100
  Method for grid partitioning is not set. Defaulting to parallel hash+maxmin partitioning.
  Batch size limit is not set. Defaulting to    200
  By default, will store active basis functions for each batch.
  If in need of memory, prune_basis_once .false. can be used to disable this option.
  communication_type for Hartree potential was not specified.
  Defaulting to calc_hartree .
  Defaulting to Pulay charge density mixer.
  Pulay mixer: Number of relevant iterations not set.
  Defaulting to    8 iterations.
  Pulay mixer: Number of initial linear mixing iterations not set.
  Defaulting to    0 iterations.
  Work space size for distributed Hartree potential not set.
  Defaulting to   0.200000E+03 MB.
  Mixing parameter for charge density mixing has not been set.
  Using default: charge_mix_param =     0.0500.
  The mixing parameter will be adjusted in iteration number     2 of the first full s.c.f. cycle only.
  Algorithm-dependent basis array size parameters:
  | n_max_pulay                         :        8
  Maximum number of self-consistency iterations not provided.
  Presetting  1000 iterations.
  Presetting      1001 iterations before the initial mixing cycle
  is restarted anyway using the sc_init_iter criterion / keyword.
  Presetting a factor      1.000 between actual scf density residual
  and density convergence criterion sc_accuracy_rho below which sc_init_iter
  takes no effect.
 * No s.c.f. convergence criteria (sc_accuracy_*) were provided in control.in.
 * The run will proceed with a reasonable default guess, but please check whether.
 * the s.c.f. cycles seem to take too much or too little time.
  Calculation of forces was not defined in control.in. No forces will be calculated.
  Geometry relaxation not requested: no relaxation will be performed.
 * Notice: The s.c.f. convergence criterion sc_accuracy_rho was not provided.
 * We used to stop in this case, and ask the user to provide reasonable
 * scf convergence criteria. However, this led some users to employ criteria
 * that led to extremely long run times, e.g., for simple relaxation.
 * We now preset a default value for sc_accuracy_rho if it is not set.
 * You may still wish to check if this setting is too tight or too loose for your needs.
 * Based on n_atoms, FHI-aims chose sc_accuracy_rho =  0.100000E-05 .
  No accuracy limit for integral partition fn. given. Defaulting to  0.1000E-14.
  No threshold value for u(r) in integrations given. Defaulting to  0.1000E-05.
  No occupation type (smearing scheme) given. Defaulting to Gaussian broadening, width =  0.1000E-01 eV.
  The width will be adjusted in iteration number     2 of the first full s.c.f. cycle only.
  S.C.F. convergence parameters will be adjusted in iteration number     2 of the first full s.c.f. cycle only.
  No accuracy for occupation numbers given. Defaulting to  0.1000E-12.
  No threshold value for occupation numbers given. Defaulting to  0.0000E+00.
  No accuracy for fermi level given. Defaulting to  0.1000E-19.
  Maximum # of iterations to find E_F not set. Defaulting to  200.
  Preferred method for the eigenvalue solver ('KS_method') not specified in 'control.in'.
  Defaulting to serial version, LAPACK (via ELSI), since more k-points than CPUs available.
  Will not use alltoall communication since running on < 1024 CPUs.
  Threshold for basis singularities not set.
  Default threshold for basis singularities:  0.1000E-04
  partition_type (choice of integration weights) for integrals was not specified.
  | Using a version of the partition function of Stratmann and coworkers ('stratmann_sparse').
  | At each grid point, the set of atoms used to build the partition table is smoothly restricted to
  | only those atoms whose free-atom density would be non-zero at that grid point.
  Partitioning for Hartree potential was not defined. Using partition_type for integrals.
  | Adjusted default value of keyword multip_moments_threshold to:       0.10000000E-11
  | This value may affect high angular momentum components of the Hartree potential in periodic systems.
  Spin handling was not defined in control.in. Defaulting to unpolarized case.
  Threshold for auxiliary basis singularities not set.
  Default threshold for auxiliary basis singularities:  0.1000E-04
  No q(lm)/r^(l+1) cutoff set for long-range Hartree potential.
  | Using default value of  0.100000E-09 .
  | Verify using the multipole_threshold keyword.
  Defaulting to new monopole extrapolation.
  Density update method: automatic selection selected.
  Using density matrix based charge density update.
  Using density matrix based charge density update.
  Using packed matrix style: index .
 * NOTE: You are attempting to run a periodic structure with an exchange treatment
 * which requires a two-electron Coulomb operator (Hartree-Fock or a hybrid functional).
 * The present implementation is reliable to our knowledge, but some things
 * (like band structure output, or perhaps the auxilary basis set for small
 * orbital basis sets - see the "for_aux" keyword) require extra care.
 * Please let us know if you encounter any trouble.
  Coulomb operator: Defaulting to screening threshold for four-center integrals:   0.100000E-06
  Coulomb operator: Defaulting to screening threshold for Coulomb matrix:   0.100000E-09
  Coulomb operator: Defaulting to 'LVL_fast' resolution of identity - RI_type = LVL_fast 
  No other resolution of identity version is supported for periodic boundary conditions at present.
  Coulomb operator: Defaulting to logarithmic spherical Bessel transform integrals (use_logsbt .true.).
  HSE with LVL_fast: Also defaulting to logarithmic spherical Bessel transform integrals.
  Defaulting to use full k-point grid (no symmetry reduction).
  Charge integration errors on the 3D integration grid will be compensated
  by explicit normalization and distribution of residual charges.
  Use the "compensate_multipole_errors" flag to change this behaviour.
  LVL not implemented with density matrix yet
  -> switching to transformed overlap
  LVL probably works better with logsbt
  Default to 1D ("use_logsbt") integrations for auxiliary 2-center integrals.
  Default onset of logarithmic r-grid for SBT is -38.000000000000
  Default onset of logarithmic k-grid for SBT is -25.000000000000
  Default range of logarithmic r- and k-grid for SBT is  45.000000000000
  Default number of logarithmic r- and k-grid for SBT is   4096
  * Use logSBT for radial HSE integration, too
 * NOTE: Band structure and exact exchange are requested at the same time,
 * and exx_band_structure_version is set to 1. 
 * exx_band_structure_version 1 is evaluated in a real-space formalism. It is fast
 * and the preferred version. HOWEVER, it does require a sufficiently
 * dense 'k_grid' to be used for the preceding s.c.f. cycle.
 * If the 'k_grid used for s.c.f. is NOT dense enough, the real-
 * space approach will produce bands that are OBVIOUSLY incorrect.
 * You cannot miss this - they won't look 'slightly' correct. In
 * that case, please try to increase the 'k_grid' parameters used
 * for the s.c.f. cycle. In particular, please avoid k_grid dimensions 
 * of '1' (one) in any dimension. We apologize for this inconvenience.
 * On the bright side, if you use exx_band_structure_version 1 
 * correctly, it will give reliable results without much overhead.
 * 
 * If your band structure does not look reasonable, increase the s.c.f. k-point
 * grid density. Again, it is especially recommended that you avoid dimensions of 1 when
 * specifying k_grid and using this option, even for large unit cells where a
 * gamma-point-only k-grid would be sufficient to converge the accuracy of the
 * calculation.
 * 
 * Please test (e.g., by comparing results from different k_grid settings) when in any doubt.
  Set 'collect_eigenvectors' to be '.true.' for all serial calculations. This is mandatory.
  Set 'collect_eigenvectors' to be '.true.' for KS_method lapack_fast and serial.
 
  Consistency checks for the contents of geometry.in are next.
 

  Range separation radius for Ewald summation (hartree_convergence_parameter):      3.91057929 bohr.
  Number of empty states per atom not set in control.in - providing a guess from actual geometry.
  | Total number of empty states used during s.c.f. cycle:        6
  If you use a very high smearing, use empty_states (per atom!) in control.in to increase this value.

  Structure-dependent array size parameters: 
  | Maximum number of distinct radial functions  :       30
  | Maximum number of basis functions            :       36
  | Number of Kohn-Sham states (occupied + empty):       20
------------------------------------------------------------
  Setting Coulomb cut-width to  1.091868692359 * rcut.
  Setting Coulomb cutting radius rcut to 23.155510909009 A.

------------------------------------------------------------
          Preparing all fixed parts of the calculation.
------------------------------------------------------------
  Determining machine precision:
    2.225073858507201E-308
  Setting up grids for atomic and cluster calculations.

  Creating wave function, potential, and density for free atoms.

  Species: Ga

  List of occupied orbitals and eigenvalues:
    n    l              occ      energy [Ha]    energy [eV]
    1    0           2.0000      -380.489758    -10353.6531
    2    0           2.0000       -46.460587     -1264.2569
    3    0           2.0000        -5.427793      -147.6978
    4    0           2.0000        -0.316119        -8.6020
    2    1           6.0000       -40.433986     -1100.2647
    3    1           6.0000        -3.616323       -98.4052
    4    1           1.0000        -0.078625        -2.1395
    3    2          10.0000        -0.688008       -18.7217


  Species: As

  List of occupied orbitals and eigenvalues:
    n    l              occ      energy [Ha]    energy [eV]
    1    0           2.0000      -436.643669    -11881.6788
    2    0           2.0000       -54.749877     -1489.8200
    3    0           2.0000        -6.987029      -190.1267
    4    0           2.0000        -0.526374       -14.3234
    2    1           6.0000       -47.996715     -1306.0571
    3    1           6.0000        -4.904622      -133.4616
    4    1           3.0000        -0.184722        -5.0265
    3    2          10.0000        -1.486454       -40.4485


  Species: Si

  List of occupied orbitals and eigenvalues:
    n    l              occ      energy [Ha]    energy [eV]
    1    0           2.0000       -65.767597     -1789.6274
    2    0           2.0000        -5.115610      -139.2028
    3    0           2.0000        -0.388877       -10.5819
    2    1           6.0000        -3.500197       -95.2452
    3    1           2.0000        -0.140803        -3.8315


  Adding cutoff potential to free-atom effective potential.
  Creating fixed part of basis set: Ionic, confined, hydrogenic.
 
  Ga                   ion:

  List of free ionic orbitals and eigenvalues:
    n    l      energy [Ha]    energy [eV]
    1    0      -381.269939    -10374.8829
    2    0       -47.220675     -1284.9399
    3    0        -6.191291      -168.4736
    4    0        -0.957864       -26.0648
    2    1       -41.195167     -1120.9775
    3    1        -4.379935      -119.1841
    3    2        -1.446562       -39.3629


  List of ionic basis orbitals and eigenvalues:
    n    l      energy [Ha]    energy [eV]    outer radius [A]
    4    0        -0.957837       -26.0641       4.370145

 
  Ga                   hydrogenic:
 
  List of hydrogenic basis orbitals: 
    n    l      effective z      eigenvalue [eV]  inner max. [A]     outer max. [A]     outer radius [A]   
    2    1         1.200000        -4.5108           1.643450           1.643450           4.589156
    3    2         3.800000       -21.8139           1.255894           1.255894           4.589156
 
 
  As                   ion:

  List of free ionic orbitals and eigenvalues:
    n    l      energy [Ha]    energy [eV]
    1    0      -437.521171    -11905.5568
    2    0       -55.607242     -1513.1500
    3    0        -7.840974      -213.3638
    4    0        -1.261898       -34.3380
    2    1       -48.854908     -1329.4097
    3    1        -5.758049      -156.6845
    4    1        -0.860696       -23.4207
    3    2        -2.335871       -63.5623


  List of ionic basis orbitals and eigenvalues:
    n    l      energy [Ha]    energy [eV]    outer radius [A]
    4    0        -1.261879       -34.3375       3.909368

 
  As                   hydrogenic:
 
  List of hydrogenic basis orbitals: 
    n    l      effective z      eigenvalue [eV]  inner max. [A]     outer max. [A]     outer radius [A]   
    3    2         4.000000       -24.1792           1.194291           1.194291           4.582756
    2    1         1.500000        -7.5079           1.382996           1.382996           4.582756
 
 
  Si                   ion:

  List of free ionic orbitals and eigenvalues:
    n    l      energy [Ha]    energy [eV]
    1    0       -66.641157     -1813.3982
    2    0        -5.964274      -162.2962
    3    0        -1.073878       -29.2217
    2    1        -4.350005      -118.3697
    3    1        -0.776571       -21.1316


  List of ionic basis orbitals and eigenvalues:
    n    l      energy [Ha]    energy [eV]    outer radius [A]
    3    0        -1.073857       -29.2211       4.214062

 
  Si                   hydrogenic:
 
  List of hydrogenic basis orbitals: 
    n    l      effective z      eigenvalue [eV]  inner max. [A]     outer max. [A]     outer radius [A]   
    3    2         4.200000       -26.6624           1.139231           1.139231           4.534782
    2    1         1.400000        -6.4613           1.472672           1.472672           4.590560
 
  Creating atomic-like basis functions for current effective potential.

  Species Ga                  :

  List of atomic basis orbitals and eigenvalues:
    n    l      energy [Ha]    energy [eV]    outer radius [A]
    1    0      -380.489758    -10353.6531       0.339519
    2    0       -46.460587     -1264.2569       0.983486
    3    0        -5.427793      -147.6978       2.780058
    4    0        -0.316119        -8.6020       4.533395
    2    1       -40.433986     -1100.2647       1.020225
    3    1        -3.616323       -98.4052       3.258922
    4    1        -0.078625        -2.1395       4.589156
    3    2        -0.688008       -18.7217       4.370145


  Species As                  :

  List of atomic basis orbitals and eigenvalues:
    n    l      energy [Ha]    energy [eV]    outer radius [A]
    1    0      -436.643669    -11881.6788       0.318942
    2    0       -54.749877     -1489.8200       0.912655
    3    0        -6.987029      -190.1267       2.486936
    4    0        -0.526374       -14.3234       4.527073
    2    1       -47.996715     -1306.0571       0.946748
    3    1        -4.904622      -133.4616       2.844895
    4    1        -0.184722        -5.0265       4.582756
    3    2        -1.486454       -40.4485       4.155782


  Species Si                  :

  List of atomic basis orbitals and eigenvalues:
    n    l      energy [Ha]    energy [eV]    outer radius [A]
    1    0       -65.767597     -1789.6274       0.789468
    2    0        -5.115610      -139.2028       2.815114
    3    0        -0.388877       -10.5819       4.534782
    2    1        -3.500197       -95.2452       3.259919
    3    1        -0.140803        -3.8315       4.590560

  Assembling full basis from fixed parts.
  | Species Ga :   atomic orbital   1 s accepted.
  | Species Ga :   atomic orbital   2 s accepted.
  | Species Ga :   atomic orbital   3 s accepted.
  | Species Ga :    ionic orbital   4 s accepted.
  | Species Ga :   atomic orbital   4 s accepted.
  | Species Ga :   atomic orbital   2 p accepted.
  | Species Ga :   atomic orbital   3 p accepted.
  | Species Ga :   atomic orbital   4 p accepted.
  | Species Ga :    hydro orbital   2 p accepted.
  | Species Ga :   atomic orbital   3 d accepted.
  | Species Ga :    hydro orbital   3 d accepted.
  | Species As :   atomic orbital   1 s accepted.
  | Species As :   atomic orbital   2 s accepted.
  | Species As :   atomic orbital   3 s accepted.
  | Species As :    ionic orbital   4 s accepted.
  | Species As :   atomic orbital   4 s accepted.
  | Species As :   atomic orbital   2 p accepted.
  | Species As :   atomic orbital   3 p accepted.
  | Species As :   atomic orbital   4 p accepted.
  | Species As :    hydro orbital   2 p accepted.
  | Species As :   atomic orbital   3 d accepted.
  | Species As :    hydro orbital   3 d accepted.
  | Species Si :   atomic orbital   1 s accepted.
  | Species Si :   atomic orbital   2 s accepted.
  | Species Si :    ionic orbital   3 s accepted.
  | Species Si :   atomic orbital   3 s accepted.
  | Species Si :   atomic orbital   2 p accepted.
  | Species Si :   atomic orbital   3 p accepted.
  | Species Si :    hydro orbital   2 p accepted.
  | Species Si :    hydro orbital   3 d accepted.
 
  Basis size parameters after reduction:
  | Total number of radial functions:       30
  | Total number of basis functions :       36
 
  Per-task memory consumption for arrays in subroutine allocate_ext:
  |          10.885228MB.
  Testing on-site integration grid accuracy.
  |  Species  Function  <phi|h_atom|phi> (log., in eV)  <phi|h_atom|phi> (rad., in eV)
           1        1             -10353.6531083681             -10353.6426064854
           1        2              -1264.2568837927              -1264.2567574771
           1        3               -147.6977694494               -147.6977664834
           1        4                 -8.2157067915                 -8.2156220906
           1        5                  5.3691127490                  5.2869956537 ***
           1        6              -1100.2647267038              -1100.2647251320
           1        7                -98.4051589771                -98.4051585337
           1        8                 -2.1632502565                 -2.1936630377 ***
           1        9                  7.2154195323                  7.0101703907 ***
           1       10                -18.7216618083                -18.7216626724
           1       11                  9.0922871809                  9.0865043987
           2       12             -11881.6787704378             -11881.6655406427
           2       13              -1489.8199667950              -1489.8198039400
           2       14               -190.1267359814               -190.1267316790
           2       15                -14.0698329783                -14.0699220836
           2       16                  6.0555617388                  6.0761392932
           2       17              -1306.0570746169              -1306.0570739251
           2       18               -133.4615612685               -133.4615604617
           2       19                 -5.0319582430                 -5.0383328047
           2       20                  6.3445176426                  6.2354835442 ***
           2       21                -40.4484584789                -40.4484582371
           2       22                  7.3305608433                  7.3275160176
           3       23              -1789.6273740966              -1789.6266345813
           3       24               -139.2028173376               -139.2028132357
           3       25                -10.2237226190                -10.2235219160
           3       26                  5.6355365073                  5.5558633521 ***
           3       27                -95.2452114632                -95.2452114537
           3       28                 -3.8413965043                 -3.8571292824
           3       29                  6.4035522332                  6.2277973139 ***
           3       30                  6.3860095444                  6.3839142324
 * Note: Onsite integrals marked "***" above are less accurate than
 * onsite_accuracy_threshold =    0.03000 eV. Usually, this is harmless.
 * However, one integral did have a negative value. This integral could be important.
 * When in doubt, tighten the "radial" and/or "radial_multiplier" flags to check.

  Preparing densities etc. for the partition functions (integrals / Hartree potential).

  Preparations completed.
  max(cpu_time)          :      0.755 s.
  Wall clock time (cpu1) :      0.756 s.
------------------------------------------------------------

------------------------------------------------------------
          Begin self-consistency loop: Initialization.

          Date     :  20210825, Time     :  112307.432
------------------------------------------------------------

  Initializing index lists of integration centers etc. from given atomic structure:
  Mapping all atomic coordinates to central unit cell.

  Initializing the k-points
  | Number of k-points                             :      1728
  | Consuming      46656 KiB for k_phase_exx.
  The eigenvectors in the calculations are COMPLEX.
  | K-points in task   0:       216
  | K-points in task   1:       216
  | K-points in task   2:       216
  | K-points in task   3:       216
  | K-points in task   4:       216
  | K-points in task   5:       216
  | K-points in task   6:       216
  | K-points in task   7:       216
  | Number of basis functions in the Hamiltonian integrals :      1454
  | Number of basis functions in a single unit cell        :        36
  | Number of centers in hartree potential         :       732
  | Number of centers in hartree multipole         :       318
  | Number of centers in electron density summation:       198
  | Number of centers in basis integrals           :       228
  | Number of centers in integrals                 :       101
  | Number of centers in hamiltonian               :       198
  | Consuming       3024 KiB for k_phase.
  | Number of super-cells (origin) [n_cells]                     :        2197
  | Number of super-cells (after PM_index) [n_cells]             :         112
  | Number of super-cells in hamiltonian [n_cells_in_hamiltonian]:         112
  | Size of matrix packed + index [n_hamiltonian_matrix_size] :       42711
  | Estimated reciprocal-space cutoff momentum G_max:         2.38654171 bohr^-1 .
  | Reciprocal lattice points for long-range Hartree potential:      58
  Partitioning the integration grid into batches with parallel hashing+maxmin method.
  | Number of batches:      151
  | Maximal batch size:     118
  | Minimal batch size:      50
  | Average batch size:      74.225
  | Standard deviation of batch sizes:      19.587

  Integration load balanced across     8 MPI tasks.
  Work distribution over tasks is as follows:
  Task     0 has       1400 integration points.
  Task     1 has       1381 integration points.
  Task     2 has       1420 integration points.
  Task     3 has       1368 integration points.
  Task     4 has       1382 integration points.
  Task     5 has       1401 integration points.
  Task     6 has       1437 integration points.
  Task     7 has       1419 integration points.
  Initializing partition tables, free-atom densities, potentials, etc. across the integration grid (initialize_grid_storage).
  | initialize_grid_storage: Actual outermost partition radius vs. multipole_radius_free
  | (-- VB: in principle, multipole_radius_free should be larger, hence this output)
  | Species        1: Confinement radius =              4.999999999999999 AA, multipole_radius_free =              5.060654947817020 AA.
  | Species        1: outer_partition_radius set to              5.060654947817020 AA .
  | Species        2: Confinement radius =              4.999999999999999 AA, multipole_radius_free =              5.053598046169615 AA.
  | Species        2: outer_partition_radius set to              5.053598046169615 AA .
  | Species        3: Confinement radius =              4.999999999999999 AA, multipole_radius_free =              5.000694715736543 AA.
  | Species        3: outer_partition_radius set to              5.000694715736543 AA .
  | The sparse table of interatomic distances needs        255.65 kbyte instead of       415.87 kbyte of memory.
  | Net number of integration points:    11208
  | of which are non-zero points    :     9820
  | Numerical average free-atom electrostatic potential    :    -12.93002033 eV
  Renormalizing the initial density to the exact electron count on the 3D integration grid.
  | Initial density: Formal number of electrons (from input files) :      28.0000000000
  | Integrated number of electrons on 3D grid     :      28.0048166489
  | Charge integration error                      :       0.0048166489
  | Normalization factor for density and gradient :       0.9998280064
  Renormalizing the free-atom superposition density to the exact electron count on the 3D integration grid.
  | Formal number of electrons (from input files) :      28.0000000000
  | Integrated number of electrons on 3D grid     :      28.0048166489
  | Charge integration error                      :       0.0048166489
  | Normalization factor for density and gradient :       0.9998280064
  Obtaining max. number of non-zero basis functions in each batch (get_n_compute_maxes).
  | Maximal number of non-zero basis functions:      453 in task     0
  | Maximal number of non-zero basis functions:      444 in task     1
  | Maximal number of non-zero basis functions:      471 in task     2
  | Maximal number of non-zero basis functions:      466 in task     3
  | Maximal number of non-zero basis functions:      466 in task     4
  | Maximal number of non-zero basis functions:      454 in task     5
  | Maximal number of non-zero basis functions:      466 in task     6
  | Maximal number of non-zero basis functions:      454 in task     7
  Allocating        2.373 MB for KS_eigenvector_complex
  Integrating Hamiltonian matrix: batch-based integration.
  Time summed over all CPUs for integration: real work        0.983 s, elapsed        1.382 s => Consider using load balancing!
  Integrating overlap matrix.
  Time summed over all CPUs for integration: real work        0.687 s, elapsed        0.945 s

  Updating Kohn-Sham eigenvalues and eigenvectors using ELSI and the (modified) LAPACK eigensolver.
  Singularity check in k-point 8, task 0 (analysis for other k-points/tasks may follow below):
  Overlap matrix is not singular
  | Lowest and highest eigenvalues :  0.5859E-03,  0.6718E+01
  Finished singularity check of overlap matrix
  | Time :     0.001 s
  Starting LAPACK eigensolver
  Finished Cholesky decomposition
  | Time :     0.000 s
  Finished transformation to standard eigenproblem
  | Time :     0.000 s
  Finished solving standard eigenproblem
  | Time :     0.001 s
  Finished back-transformation of eigenvectors
  | Time :     0.000 s

  Obtaining occupation numbers and chemical potential using ELSI.
  | Chemical potential (Fermi level):    -6.07556567 eV
  Writing Kohn-Sham eigenvalues.
  K-point:       1 at    0.000000    0.000000    0.000000 (in units of recip. lattice)

  State    Occupation    Eigenvalue [Ha]    Eigenvalue [eV]
      1       2.00000         -65.788216        -1790.18844
      2       2.00000         -65.788216        -1790.18844
      3       2.00000          -5.140691         -139.88533
      4       2.00000          -5.140427         -139.87814
      5       2.00000          -3.525292          -95.92808
      6       2.00000          -3.525291          -95.92805
      7       2.00000          -3.525291          -95.92804
      8       2.00000          -3.524704          -95.91208
      9       2.00000          -3.524704          -95.91207
     10       2.00000          -3.524703          -95.91206
     11       2.00000          -0.656561          -17.86593
     12       2.00000          -0.224877           -6.11920
     13       2.00000          -0.224816           -6.11755
     14       2.00000          -0.224813           -6.11748
     15       0.00000          -0.122181           -3.32471
     16       0.00000          -0.122153           -3.32395
     17       0.00000          -0.122125           -3.32318
     18       0.00000          -0.104587           -2.84597
     19       0.00000           0.072901            1.98372
     20       0.00000           0.073050            1.98780

  What follows are estimated values for band gap, HOMO, LUMO, etc.
  | They are estimated on a discrete k-point grid and not necessarily exact.
  | For converged numbers, create a DOS and/or band structure plot on a denser k-grid.

  Highest occupied state (VBM) at     -6.11748493 eV (relative to internal zero)
  | Occupation number:      2.00000000
  | K-point:       1 at    0.000000    0.000000    0.000000 (in units of recip. lattice)

  Lowest unoccupied state (CBM) at    -5.23763374 eV (relative to internal zero)
  | Occupation number:      0.00000000
  | K-point:    1016 at    0.583333    0.000000    0.583333 (in units of recip. lattice)

  ESTIMATED overall HOMO-LUMO gap:      0.87985118 eV between HOMO at k-point 1 and LUMO at k-point 1016
  | This appears to be an indirect band gap.
  | Smallest direct gap :      2.76072203 eV for k_point 7 at    0.000000    0.000000    0.500000 (in units of recip. lattice)
  The gap value is above 0.2 eV. Unless you are using a very sparse k-point grid,
  this system is most likely an insulator or a semiconductor.
  Calculating total energy contributions from superposition of free atom densities.

  Total energy components:
  | Sum of eigenvalues            :        -329.26478652 Ha       -8959.75070820 eV
  | XC energy correction          :         -41.71558799 Ha       -1135.13890449 eV
  | XC potential correction       :          53.87333990 Ha        1465.96816643 eV
  | Free-atom electrostatic energy:        -263.63176335 Ha       -7173.78527881 eV
  | Hartree energy correction     :           0.00000000 Ha           0.00000000 eV
  | Entropy correction            :          -0.00000000 Ha          -0.00000000 eV
  | ---------------------------
  | Total energy                  :        -580.73879795 Ha      -15802.70672507 eV
  | Total energy, T -> 0          :        -580.73879795 Ha      -15802.70672507 eV  <-- do not rely on this value for anything but (periodic) metals
  | Electronic free energy        :        -580.73879795 Ha      -15802.70672507 eV

  Derived energy quantities:
  | Kinetic energy                :         582.29168605 Ha       15844.96296014 eV
  | Electrostatic energy          :       -1121.31489600 Ha      -30512.53078072 eV
  | Energy correction for multipole
  | error in Hartree potential    :           0.00000000 Ha           0.00000000 eV
  | Sum of eigenvalues per atom                           :       -4479.87535410 eV
  | Total energy (T->0) per atom                          :       -7901.35336254 eV  <-- do not rely on this value for anything but (periodic) metals
  | Electronic free energy per atom                       :       -7901.35336254 eV
  
  --------------------------------------------
  Constructing auxiliary basis (full product) ...
  
  Product basis:
  | charge radius: extent of product basis function
  | field radius: extent of its Coulomb potential
  | Species   l  charge radius    field radius
  |    Si     0     4.318366 A      4.318366 A
  |    Si     0     4.371482 A      6.705824 A
  |    Si     0     4.425251 A      8.775170 A
  |    Si     0     4.534782 A     12.662889 A
  |    Si     0     4.590560 A     18.497769 A
  |    Si     0     4.590560 A     21.160261 A
  |    Si     0     4.534782 A     23.334310 A
  |    Si     0     4.590560 A     24.503715 A
  |    Si     0     4.590560 A     25.110215 A
  |    Si     0     4.590560 A     25.110215 A
  |    Si     1     4.318366 A      4.318366 A
  |    Si     1     4.371482 A      5.124469 A
  |    Si     1     4.479682 A     10.541300 A
  |    Si     1     4.534782 A     13.297494 A
  |    Si     1     4.590560 A     16.170285 A
  |    Si     1     4.590560 A     21.950719 A
  |    Si     1     4.647024 A     23.621323 A
  |    Si     1     4.647024 A     24.805112 A
  |    Si     1     4.647024 A     25.110215 A
  |    Si     1     4.647024 A     25.419071 A
  |    Si     2     4.371482 A      4.371482 A
  |    Si     2     4.479682 A      7.485751 A
  |    Si     2     4.534782 A     16.774339 A
  |    Si     2     4.590560 A     21.684006 A
  |    Si     2     4.590560 A     23.621323 A
  |    Si     2     4.590560 A     24.805112 A
  |    Si     2     4.590560 A     25.110215 A
  |    Si     3     4.479682 A     18.497769 A
  |    Si     3     4.534782 A     22.220713 A
  |    Si     3     4.590560 A     23.911865 A
  |    Si     3     4.590560 A     24.805112 A
  |    Si     4     4.534782 A     23.334310 A

  | Shrink_full_auxil_basis : there are       32  radial auxiliary wave functions
                            accepted and      26 rejected.
  | Shrink_full_auxil_basis : there are totally               22176 partial auxiliary wave functions.
  prodbas_tasks_distribution_pbc not up to date - distributing tasks.
 
  | Number of product basis functions per thread :  2772
  Parallel distribution of product basis not up to date - distributing tasks.
 
  | Number of product basis functions per thread :    28
  | Minimal requirement for computer memory :           0.001 Gbs
  -----------------------------------------
  --- Initializing Fock matrix calculations
  -----------------------------------------
  screening_threshold (crit_val) =  0.000000100000
  coul_mat_threshold =  0.000000000100
  Trying to make the workload more even by internally splitting atoms into fractions
  Atom:            1  Basis/atom:    18.0000000000000
  Atom:            2  Basis/atom:    18.0000000000000
  -----------------------------------------------------
  Dividing atoms among tasks for exact exchange energy:
  Atom:     1 Weight:   112.00
  Atom:     2 Weight:   112.00

  Average weight per task:   28.000

  Number of "big" (above average) atoms  :     2
  Number of "small" (below average) atoms:     0
  All atoms have above average work per task
  Atoms will be divided among tasks to get best load distribution

  Atom division among tasks:
  Atom     1: (initial) task:     0, # of tasks:     4
  Atom     2: (initial) task:     4, # of tasks:     4

  -----------------------------------------------------
 No atoms are split internally
  Number of super-cells in X Y Z:       6       6       6
  Number of atoms pairs total:          334
  Atom pair distribution:
  Cell:       -3       0       1 atom pairs:        1
  Cell:       -3       1       0 atom pairs:        1
  Cell:       -3       1       1 atom pairs:        3
  Cell:       -2      -1       0 atom pairs:        1
  Cell:       -2      -1       1 atom pairs:        3
  Cell:       -2      -1       2 atom pairs:        3
  Cell:       -2       0      -1 atom pairs:        1
  Cell:       -2       0       0 atom pairs:        3
  Cell:       -2       0       1 atom pairs:        4
  Cell:       -2       0       2 atom pairs:        4
  Cell:       -2       1      -1 atom pairs:        3
  Cell:       -2       1       0 atom pairs:        4
  Cell:       -2       1       1 atom pairs:        4
  Cell:       -2       1       2 atom pairs:        3
  Cell:       -2       2      -1 atom pairs:        3
  Cell:       -2       2       0 atom pairs:        4
  Cell:       -2       2       1 atom pairs:        3
  Cell:       -1      -2       0 atom pairs:        1
  Cell:       -1      -2       1 atom pairs:        3
  Cell:       -1      -2       2 atom pairs:        3
  Cell:       -1      -1      -1 atom pairs:        3
  Cell:       -1      -1       0 atom pairs:        4
  Cell:       -1      -1       1 atom pairs:        4
  Cell:       -1      -1       2 atom pairs:        4
  Cell:       -1      -1       3 atom pairs:        3
  Cell:       -1       0      -2 atom pairs:        1
  Cell:       -1       0      -1 atom pairs:        4
  Cell:       -1       0       0 atom pairs:        4
  Cell:       -1       0       1 atom pairs:        4
  Cell:       -1       0       2 atom pairs:        4
  Cell:       -1       0       3 atom pairs:        1
  Cell:       -1       1      -2 atom pairs:        3
  Cell:       -1       1      -1 atom pairs:        4
  Cell:       -1       1       0 atom pairs:        4
  Cell:       -1       1       1 atom pairs:        4
  Cell:       -1       1       2 atom pairs:        3
  Cell:       -1       2      -2 atom pairs:        3
  Cell:       -1       2      -1 atom pairs:        4
  Cell:       -1       2       0 atom pairs:        4
  Cell:       -1       2       1 atom pairs:        3
  Cell:       -1       3      -1 atom pairs:        3
  Cell:       -1       3       0 atom pairs:        1
  Cell:        0      -3       1 atom pairs:        1
  Cell:        0      -2      -1 atom pairs:        1
  Cell:        0      -2       0 atom pairs:        3
  Cell:        0      -2       1 atom pairs:        4
  Cell:        0      -2       2 atom pairs:        4
  Cell:        0      -1      -2 atom pairs:        1
  Cell:        0      -1      -1 atom pairs:        4
  Cell:        0      -1       0 atom pairs:        4
  Cell:        0      -1       1 atom pairs:        4
  Cell:        0      -1       2 atom pairs:        4
  Cell:        0      -1       3 atom pairs:        1
  Cell:        0       0      -2 atom pairs:        3
  Cell:        0       0      -1 atom pairs:        4
  Cell:        0       0       0 atom pairs:        4
  Cell:        0       0       1 atom pairs:        4
  Cell:        0       0       2 atom pairs:        3
  Cell:        0       1      -3 atom pairs:        1
  Cell:        0       1      -2 atom pairs:        4
  Cell:        0       1      -1 atom pairs:        4
  Cell:        0       1       0 atom pairs:        4
  Cell:        0       1       1 atom pairs:        4
  Cell:        0       1       2 atom pairs:        1
  Cell:        0       2      -2 atom pairs:        4
  Cell:        0       2      -1 atom pairs:        4
  Cell:        0       2       0 atom pairs:        3
  Cell:        0       2       1 atom pairs:        1
  Cell:        0       3      -1 atom pairs:        1
  Cell:        1      -3       0 atom pairs:        1
  Cell:        1      -3       1 atom pairs:        3
  Cell:        1      -2      -1 atom pairs:        3
  Cell:        1      -2       0 atom pairs:        4
  Cell:        1      -2       1 atom pairs:        4
  Cell:        1      -2       2 atom pairs:        3
  Cell:        1      -1      -2 atom pairs:        3
  Cell:        1      -1      -1 atom pairs:        4
  Cell:        1      -1       0 atom pairs:        4
  Cell:        1      -1       1 atom pairs:        4
  Cell:        1      -1       2 atom pairs:        3
  Cell:        1       0      -3 atom pairs:        1
  Cell:        1       0      -2 atom pairs:        4
  Cell:        1       0      -1 atom pairs:        4
  Cell:        1       0       0 atom pairs:        4
  Cell:        1       0       1 atom pairs:        4
  Cell:        1       0       2 atom pairs:        1
  Cell:        1       1      -3 atom pairs:        3
  Cell:        1       1      -2 atom pairs:        4
  Cell:        1       1      -1 atom pairs:        4
  Cell:        1       1       0 atom pairs:        4
  Cell:        1       1       1 atom pairs:        3
  Cell:        1       2      -2 atom pairs:        3
  Cell:        1       2      -1 atom pairs:        3
  Cell:        1       2       0 atom pairs:        1
  Cell:        2      -2      -1 atom pairs:        3
  Cell:        2      -2       0 atom pairs:        4
  Cell:        2      -2       1 atom pairs:        3
  Cell:        2      -1      -2 atom pairs:        3
  Cell:        2      -1      -1 atom pairs:        4
  Cell:        2      -1       0 atom pairs:        4
  Cell:        2      -1       1 atom pairs:        3
  Cell:        2       0      -2 atom pairs:        4
  Cell:        2       0      -1 atom pairs:        4
  Cell:        2       0       0 atom pairs:        3
  Cell:        2       0       1 atom pairs:        1
  Cell:        2       1      -2 atom pairs:        3
  Cell:        2       1      -1 atom pairs:        3
  Cell:        2       1       0 atom pairs:        1
  Cell:        3      -1      -1 atom pairs:        3
  Cell:        3      -1       0 atom pairs:        1
  Cell:        3       0      -1 atom pairs:        1
 sparsity of pfbvk:   1.000000    
  Number of atoms pairs in BvK cells:          334
  Initializing work distribution for fock matrix calculation
  Task     0 : Coulomb matrix distribution changed.
  Task     1 : Coulomb matrix distribution changed.
  Task     2 : Coulomb matrix distribution changed.
  Task     3 : Coulomb matrix distribution changed.
  Task     4 : Coulomb matrix distribution changed.
  Task     5 : Coulomb matrix distribution changed.
  Task     6 : Coulomb matrix distribution changed.
  Task     7 : Coulomb matrix distribution changed.
  Overall Coulomb matrix distribution changed.
  Coulomb matrix subdivision:
  Task     0 atom     1 has        432 Coulomb matrix cells
  Task      0: my_n_atoms2:      1 my_atom_list:      1
  Task      1: my_n_atoms2:      1 my_atom_list:      1
  Task      2: my_n_atoms2:      1 my_atom_list:      1
  Task      3: my_n_atoms2:      1 my_atom_list:      1
  Task      4: my_n_atoms2:      1 my_atom_list:      2
  Task      5: my_n_atoms2:      1 my_atom_list:      2
  Task      6: my_n_atoms2:      1 my_atom_list:      2
  Task      7: my_n_atoms2:      1 my_atom_list:      2
  Task      0: my_n_atom_pairs:     41
  Task      1: my_n_atom_pairs:     42
  Task      2: my_n_atom_pairs:     42
  Task      3: my_n_atom_pairs:     42
  Task      4: my_n_atom_pairs:     41
  Task      5: my_n_atom_pairs:     42
  Task      6: my_n_atom_pairs:     42
  Task      7: my_n_atom_pairs:     42
  Max. memory consumption per node for Hartree Fock matrix + Pulay mixing [GB]:      0.64
  --- Initializing LVL triples, type HSE
  | Storage requirements for basis-basbas products (processor-local):
  |   Species Ga: n_prodsfn:     0; storage:        0.00 MiB.
  |   Species As: n_prodsfn:     0; storage:        0.00 MiB.
  |   Species Si: n_prodsfn:   356; storage:       11.12 MiB.

  --- Initializing Coulomb matrix calculations, type HSE
  Preparing TB like auxiliary 2-center HSE-pot matrix
  SBT integration errors (all should be 'small'):
  large logFT aliasing -> increase N/lnrange
  large SBT aliasing -> decrease lnk0 & increase lnk0+lnrange
  large SBT ringing -> decrease lnr0 & increase lnr0+lnrange
  |            El't  L: logFT-al.   small-k   large-k   small-r   large-r
  | Need to store   875 splines of   235 points taking       1624 KiB.
  | Spline reduction from  4096 to   235 points by (cutting and)     1 x coarsening gives error:  0.00E+00
  | Maximum value outside interaction range:  7.55E-14
  Finished with initialize_tb_auxmat/lvl_triples, time:        0.333
  Upper limit for memory consumption per node [GB] for Coulomb matrices if no compression occurs:       2.775
  Upper limit for temporary arrays in Coulomb matrix initalization [GB]:      2.40
  --- Calculating Coulomb matrices
  --- Calculating Coulomb matrices
  Max. memory consumption per node for Coulomb matrix [GB]:      0.18
  Time to calculate Coulomb Matrices   :      388.719
   Number of Coulomb matrix elements:
  | Task     0 total:       10700032, > threshold:        1666898, stored:        2768062
  | Task     1 total:       10436608, > threshold:        1668453, stored:        2768062
  | Task     2 total:        9408000, > threshold:        1667357, stored:        2768081
  | Task     3 total:       12807424, > threshold:        1666738, stored:        2768053
  | Task     4 total:       12807424, > threshold:        1666223, stored:        2768053
  | Task     5 total:        9408000, > threshold:        1662745, stored:        2768081
  | Task     6 total:       10436608, > threshold:        1665326, stored:        2768062
  | Task     7 total:       10700032, > threshold:        1675152, stored:        2768062
  --- Done init_fock_matrix_calculations
  Max. memory per node for ovlp3fn matrices:        0.097 GB
  Total memory for ovlp3fn matrices:        0.097 GB
  Size of ovlp3fn for atom   13284       1     112
  --- Calculating OVLP3FN
  Allocating        8.859 MB for coeff_3fn
  --- Done calculating OVLP3FN, time:       10.259
  Compare n_pairs with n_super      16    2197
  --- Done getting norm of OVLP3FN, time:        0.004
  Atomic logSBT for 2-center HSE-pot matrix    :  max(cpu_time)    wall_clock(cpu1)
  | TB initialization                          :        0.103 s           0.104 s
  | TB usage                                   :        3.399 s           3.362 s

  Atomic logSBT for LVL-triples                :  max(cpu_time)    wall_clock(cpu1)
  | Multiplication with kernel                 :        0.113 s           0.086 s
  | Main matrix multiplication                 :        5.349 s           3.674 s
  | Analytic angular integration               :        0.056 s           0.029 s
  | Kernel construction                        :        0.168 s           0.115 s
  | Overall 2-center overlap time              :        6.078 s           4.127 s
  | 3-center preparation multiplications       :        0.067 s           0.045 s
  | 3-center preparation SBTs                  :        1.363 s           0.645 s
  | 3-center combinations                      :        6.698 s           4.525 s
  | Overal 3-center time                       :        8.131 s           5.217 s
  | LVL initialization                         :        0.229 s           0.229 s
  | Whole LVL-triples                          :        0.229 s           0.229 s

  Max. memory consumption per node for dm_cols plus fock_matrix [GB]:      0.14
  Calculating non-local Hartree-Fock exchange by two-center RI (RI-LVL).
  screening_threshold (crit_val) =  0.000000100000
  Max. memory consumption per node for ovlp3fn_rcv [GB]:      0.01
  Max. memory consumption per node for tmp1/tmp2 [GB]:      0.45
  Exact exchange progress report - outermost basis function loop i_basis_r1: 1 ..      36
  |        1         2         3         4         5         6         7         8         9        10
  |       11        12        13        14        15        16        17        18        19        20
  |       21        22        23        24        25        26        27        28        29        30
  |       31        32        33        34        35        36  
  Full exact exchange energy:    1065.964161259135 eV.
  Detailed communication and barrier times:
  | Comm    0:        0.001       0.000       0.003       0.266       0.019       0.001       0.001       0.000       0.000       0.423
  | Comm    1:        0.001       0.000       0.003       0.266       0.020       0.001       0.001       0.000       0.000       0.423
  | Comm    2:        0.001       0.000       0.003       0.266       0.019       0.001       0.001       0.000       0.000       0.423
  | Comm    3:        0.001       0.000       0.003       0.266       0.019       0.001       0.001       0.000       0.000       0.423
  | Comm    4:        0.001       0.000       0.003       0.237       0.019       0.001       0.001       0.000       0.000       0.377
  | Comm    5:        0.001       0.000       0.003       0.237       0.019       0.001       0.001       0.000       0.000       0.377
  | Comm    6:        0.001       0.000       0.003       0.237       0.019       0.001       0.001       0.000       0.000       0.377
  | Comm    7:        0.001       0.000       0.003       0.237       0.019       0.001       0.001       0.000       0.000       0.377
  | Imbalance    0:        0.014       0.002       0.062       0.696       0.330       0.003       0.010       0.000       0.000       2.824
  | Imbalance    1:        0.032       0.000       0.048       0.000       0.003       0.001       0.007       0.000       0.000       0.000
  | Imbalance    2:        0.032       0.002       0.084       0.792       0.416       0.002       0.010       0.000       0.000       2.851
  | Imbalance    3:        0.032       0.002       0.101       0.788       0.421       0.003       0.010       0.000       0.000       2.833
  | Imbalance    4:        0.017       0.002       0.057       0.431       1.417       0.002       0.010       0.000       0.000       1.945
  | Imbalance    5:        0.032       0.001       0.064       0.001       1.214       0.002       0.007       0.000       0.000       0.000
  | Imbalance    6:        0.032       0.002       0.081       0.519       1.486       0.002       0.010       0.000       0.000       1.955
  | Imbalance    7:        0.032       0.002       0.099       0.526       1.508       0.002       0.010       0.000       0.000       1.907
  Times            DM_x_o3fn   CM_x_o3fn    Products        Sync   Imbalance    Pre/Post       Other  Total calc
  | Times    0:        1.001       0.000       3.363       0.714       3.941       0.011       1.166      10.196
  | Times    1:        1.667       0.000       6.442       0.714       0.092       0.012       1.264      10.190
  | Times    2:        0.905       0.000       3.252       0.713       4.190       0.013       1.113      10.187
  | Times    3:        0.909       0.000       3.264       0.713       4.189       0.013       1.098      10.187
  | Times    4:        1.013       0.000       3.465       0.639       3.881       0.020       1.177      10.195
  | Times    5:        1.419       0.000       5.589       0.639       1.320       0.020       1.202      10.189
  | Times    6:        0.925       0.000       3.391       0.639       4.088       0.021       1.125      10.188
  | Times    7:        0.918       0.000       3.413       0.639       4.086       0.021       1.112      10.187
  | Times  sum:        8.756       0.000      32.178       5.409      25.789       0.130       9.257      81.519

  Decomposition of Other based on code block (only on MPI task 0):
  Times             Block #1    Block #2    Block #3    Block #4    Block #5    Block #6    Block #7    Block #8
  | Times    0:        0.438       0.001       0.015       0.006       0.082       0.003       0.012       0.012

  Times             Block #9   Block #10   Block #11   Block #12   Block #13   Block #14   Block #15   Block #16
  | Times    0:        0.029       0.000       0.083       0.000       0.136       0.326       0.004       0.007

  Times            Block Sum    Expected
  | Times    0:        1.153       1.166
  Initialize hartree_potential_storage
  Max. number of atoms included in rho_multipole:            2

  End scf initialization - timings             :  max(cpu_time)    wall_clock(cpu1)
  | Time for scf. initialization               :      411.301 s         411.315 s
  | Boundary condition initialization          :        0.249 s           0.249 s
  | Integration                                :        0.296 s           0.296 s
  | Solution of K.-S. eqns.                    :        0.387 s           0.387 s
  | Grid partitioning                          :        0.020 s           0.020 s
  | Preloading free-atom quantities on grid    :        0.068 s           0.069 s
  | Free-atom superposition energy             :        0.010 s           0.010 s
[...]

  Lowest unoccupied state (CBM) at    -4.75693516 eV (relative to internal zero)
  | Occupation number:      0.00000000
  | K-point:     726 at    0.416667    0.000000    0.416667 (in units of recip. lattice)

  ESTIMATED overall HOMO-LUMO gap:      1.22207693 eV between HOMO at k-point 1 and LUMO at k-point 726
  | This appears to be an indirect band gap.
  | Smallest direct gap :      3.36751402 eV for k_point 1 at    0.000000    0.000000    0.000000 (in units of recip. lattice)
  The gap value is above 0.2 eV. Unless you are using a very sparse k-point grid,
  this system is most likely an insulator or a semiconductor.

  Total energy components:
  | Sum of eigenvalues            :        -335.46704965 Ha       -9128.52287518 eV
  | XC energy correction          :         -22.27935200 Ha        -606.25201378 eV
  | XC potential correction       :          41.25415292 Ha        1122.58261724 eV
  | Free-atom electrostatic energy:        -263.63176335 Ha       -7173.78527881 eV
  | Hartree energy correction     :          -0.68989630 Ha         -18.77303344 eV
  | Entropy correction            :          -0.00000000 Ha          -0.00000000 eV
  | ---------------------------
  | Total energy                  :        -580.81390838 Ha      -15804.75058397 eV
  | Total energy, T -> 0          :        -580.81390838 Ha      -15804.75058397 eV  <-- do not rely on this value for anything but (periodic) metals
  | Electronic free energy        :        -580.81390838 Ha      -15804.75058397 eV

  Derived energy quantities:
  | Kinetic energy                :         582.56395695 Ha       15852.37182836 eV
  | Electrostatic energy          :       -1121.50864117 Ha      -30517.80285495 eV
  | Energy correction for multipole
  | error in Hartree potential    :           0.01457261 Ha           0.39654082 eV
  | Sum of eigenvalues per atom                           :       -4564.26143759 eV
  | Total energy (T->0) per atom                          :       -7902.37529198 eV  <-- do not rely on this value for anything but (periodic) metals
  | Electronic free energy per atom                       :       -7902.37529198 eV

  Self-consistency convergence accuracy:
  | Change of charge density      :  0.4052E-06
  | Change of sum of eigenvalues  :  0.1709E-03 eV
  | Change of total energy        : -0.2678E-05 eV

  Writing Kohn-Sham eigenvalues.
  K-point:       1 at    0.000000    0.000000    0.000000 (in units of recip. lattice)

  State    Occupation    Eigenvalue [Ha]    Eigenvalue [eV]
      1       2.00000         -66.589221        -1811.98489
      2       2.00000         -66.589221        -1811.98489
      3       2.00000          -5.378428         -146.35447
      4       2.00000          -5.378107         -146.34574
      5       2.00000          -3.684701         -100.26583
      6       2.00000          -3.684701         -100.26583
      7       2.00000          -3.684701         -100.26580
      8       2.00000          -3.684105         -100.24959
      9       2.00000          -3.684104         -100.24958
     10       2.00000          -3.684103         -100.24955
     11       2.00000          -0.703442          -19.14162
     12       2.00000          -0.219788           -5.98073
     13       2.00000          -0.219729           -5.97912
     14       2.00000          -0.219725           -5.97901
     15       0.00000          -0.095971           -2.61150
     16       0.00000          -0.095942           -2.61070
     17       0.00000          -0.095913           -2.60991
     18       0.00000          -0.064224           -1.74762
     19       0.00000           0.109834            2.98873
     20       0.00000           0.109989            2.99296

  What follows are estimated values for band gap, HOMO, LUMO, etc.
  | They are estimated on a discrete k-point grid and not necessarily exact.
  | For converged numbers, create a DOS and/or band structure plot on a denser k-grid.

  Highest occupied state (VBM) at     -5.97901210 eV (relative to internal zero)
  | Occupation number:      2.00000000
  | K-point:       1 at    0.000000    0.000000    0.000000 (in units of recip. lattice)

  Lowest unoccupied state (CBM) at    -4.75693516 eV (relative to internal zero)
  | Occupation number:      0.00000000
  | K-point:     726 at    0.416667    0.000000    0.416667 (in units of recip. lattice)

  ESTIMATED overall HOMO-LUMO gap:      1.22207693 eV between HOMO at k-point 1 and LUMO at k-point 726
  | This appears to be an indirect band gap.
  | Smallest direct gap :      3.36751402 eV for k_point 1 at    0.000000    0.000000    0.000000 (in units of recip. lattice)
  The gap value is above 0.2 eV. Unless you are using a very sparse k-point grid,
  this system is most likely an insulator or a semiconductor.

  Self-consistency cycle converged.

  End self-consistency iteration #    12       :  max(cpu_time)    wall_clock(cpu1)
  | Time for this iteration                    :       11.554 s          11.555 s
  | Charge density update                      :        0.000 s           0.000 s
  | Density mixing                             :        0.001 s           0.002 s
  | Hartree multipole update                   :        0.002 s           0.002 s
  | Hartree multipole summation                :        0.165 s           0.165 s
  | Integration                                :        0.191 s           0.191 s
  | Fock matrix evaluation                     :       10.859 s          10.812 s
  | Solution of K.-S. eqns.                    :        0.332 s           0.332 s
  | Total energy evaluation                    :        0.002 s           0.002 s

  Partial memory accounting:
  | Current value for overall tracked memory usage:
  |   Minimum:       14.655 MB (on task 0)
  |   Maximum:       14.934 MB (on task 1)
  |   Average:       14.865 MB
  | Peak value for overall tracked memory usage:
  |   Minimum:       44.532 MB (on task 2 after allocating aux_mat)
  |   Maximum:       63.482 MB (on task 3 after allocating aux_mat)
  |   Average:       51.232 MB
  | Largest tracked array allocation so far:
  |   Minimum:       41.344 MB (aux_mat on task 2)
  |   Maximum:       60.293 MB (aux_mat on task 3)
  |   Average:       48.043 MB
  Note:  These values currently only include a subset of arrays which are explicitly tracked.
  The "true" memory usage will be greater.
------------------------------------------------------------

  Energy and forces in a compact form:
  | Total energy uncorrected      :         -0.158047505839700E+05 eV
  | Total energy corrected        :         -0.158047505839700E+05 eV  <-- do not rely on this value for anything but (periodic) metals
  | Electronic free energy        :         -0.158047505839700E+05 eV

  Calculating total density of states ...
  | Chemical potential is  -5.937091 eV.
  | writing DOS (shifted by electron chemical potential) to file KS_DOS_total_tetrahedron.dat
  | writing DOS (raw data) to file KS_DOS_total_raw_tetrahedron.dat
  ------------------------------------ 
  Start decomposition of the XC Energy 
  ------------------------------------ 
  X and C from original XC functional choice 
  Hartree-Fock Energy :         -9.794936116 Ha           -266.533772808 eV
  X Energy            :        -40.775573729 Ha          -1109.559814949 eV
  C Energy            :         -1.093650470 Ha            -29.759743437 eV
  Total XC Energy     :        -41.869224199 Ha          -1139.319558385 eV
  ------------------------------------ 
  LDA X and C from self-consistent density 
  X Energy LDA        :        -37.639691084 Ha          -1024.228106541 eV
  C Energy LDA        :         -2.146055316 Ha            -58.397136370 eV
  ------------------------------------ 
  End decomposition of the XC Energy 
  ------------------------------------ 

------------------------------------------------------------

  -------------------------------------------------------------------
  Writing the requested band structure output (LAPACK version):
  -------------------------------------------------------------------

  Integrating Hamiltonian matrix: batch-based integration.
  Time summed over all CPUs for integration: real work        1.016 s, elapsed        1.504 s => Consider using load balancing!

  Treating all   35 k-points in band plot segment #   1:

  Overlap matrix is not singular
  | Lowest and highest eigenvalues :  0.2522E-02,  0.6748E+01
  Finished singularity check of overlap matrix
  | Time :     0.001 s
  Starting LAPACK eigensolver
  Finished Cholesky decomposition
  | Time :     0.000 s
  Finished transformation to standard eigenproblem
  | Time :     0.000 s
  Finished solving standard eigenproblem
  | Time :     0.001 s
  Finished back-transformation of eigenvectors
  | Time :     0.000 s

  "Band gap" along reciprocal space direction number:    1
  | Lowest unoccupied state:      -4.75583608 eV
  | Highest occupied state :      -5.97901210 eV
  | Energy difference      :       1.22317602 eV


  Treating all   17 k-points in band plot segment #   2:


  "Band gap" along reciprocal space direction number:    2
  | Lowest unoccupied state:      -4.59815736 eV
  | Highest occupied state :      -9.05822078 eV
  | Energy difference      :       4.46006343 eV


  Treating all   12 k-points in band plot segment #   3:


  "Band gap" along reciprocal space direction number:    3
  | Lowest unoccupied state:      -4.05984272 eV
  | Highest occupied state :      -8.58719114 eV
  | Energy difference      :       4.52734842 eV


  Treating all   37 k-points in band plot segment #   4:


  "Band gap" along reciprocal space direction number:    4
  | Lowest unoccupied state:      -4.05984272 eV
  | Highest occupied state :      -5.97901210 eV
  | Energy difference      :       1.91916938 eV


  Treating all   30 k-points in band plot segment #   5:


  "Band gap" along reciprocal space direction number:    5
  | Lowest unoccupied state:      -3.76503247 eV
  | Highest occupied state :      -5.97901210 eV
  | Energy difference      :       2.21397963 eV


  Treating all   21 k-points in band plot segment #   6:


  "Band gap" along reciprocal space direction number:    6
  | Lowest unoccupied state:      -4.06129648 eV
  | Highest occupied state :      -7.26263098 eV
  | Energy difference      :       3.20133451 eV


  Treating all   12 k-points in band plot segment #   7:


  "Band gap" along reciprocal space direction number:    7
  | Lowest unoccupied state:      -4.06129648 eV
  | Highest occupied state :      -8.58863550 eV
  | Energy difference      :       4.52733902 eV


  Treating all   24 k-points in band plot segment #   8:


  "Band gap" along reciprocal space direction number:    8
  | Lowest unoccupied state:      -3.76503247 eV
  | Highest occupied state :      -7.26263098 eV
  | Energy difference      :       3.49759852 eV


  Treating all   21 k-points in band plot segment #   9:


  "Band gap" along reciprocal space direction number:    9
  | Lowest unoccupied state:      -4.05984272 eV
  | Highest occupied state :      -7.26263098 eV
  | Energy difference      :       3.20278827 eV


  Treating all   12 k-points in band plot segment #  10:


  "Band gap" along reciprocal space direction number:   10
  | Lowest unoccupied state:      -4.59815736 eV
  | Highest occupied state :      -8.58863550 eV
  | Energy difference      :       3.99047814 eV

  "Band gap" of total set of bands:
  | Lowest unoccupied state:      -4.75583608 eV
  | Highest occupied state :      -5.97901210 eV
  | Energy difference      :       1.22317602 eV


  Band Structure                                          :  max(cpu_time) wall_clock(cpu1)
  | Total Time                                            :        161.011          161.049
------------------------------------------------------------

------------------------------------------------------------------------------
  Final output of selected total energy values:

  The following output summarizes some interesting total energy values
  at the end of a run (AFTER all relaxation, molecular dynamics, etc.).

  | Total energy of the DFT / Hartree-Fock s.c.f. calculation      :         -15804.750583970 eV
  | Final zero-broadening corrected energy (caution - metals only) :         -15804.750583970 eV
  | For reference only, the value of 1 Hartree used in FHI-aims is :             27.211384500 eV
  | For reference only, the overall average (free atom contribution
  | + realspace contribution) of the electrostatic potential after
  | s.c.f. convergence is                                          :            -12.632571386 eV

  Before relying on these values, please be sure to understand exactly which
  total energy value is referred to by a given number. Different objects may
  all carry the same name 'total energy'. Definitions:

  Total energy of the DFT / Hartree-Fock s.c.f. calculation:
  | Note that this energy does not include ANY quantities calculated after the
  | s.c.f. cycle, in particular not ANY RPA, MP2, etc. many-body perturbation terms.

  Final zero-broadening corrected energy:
  | For metallic systems only, a broadening of the occupation numbers at the Fermi
  | level can be extrapolated back to zero broadening by an electron-gas inspired
  | formula. For all systems that are not real metals, this value can be
  | meaningless and should be avoided.

------------------------------------------------------------------------------
  Methods described in the following list of references were used in this FHI-aims run.
  If you publish the results, please make sure to cite these reference if they apply.
  FHI-aims is an academic code, and for our developers (often, Ph.D. students
  and postdocs), scientific credit in the community is essential.
  Thank you for helping us!

  For any use of FHI-aims, please cite:

    Volker Blum, Ralf Gehrke, Felix Hanke, Paula Havu, Ville Havu,
    Xinguo Ren, Karsten Reuter, and Matthias Scheffler
    'Ab initio molecular simulations with numeric atom-centered orbitals'
    Computer Physics Communications 180, 2175-2196 (2009)
    http://dx.doi.org/10.1016/j.cpc.2009.06.022


  For Hartree-Fock, hybrid functionals, or many-body perturbation theory used in your run, please cite:

    Xinguo Ren, Patrick Rinke, Volker Blum, Juergen Wieferink, Alex Tkatchenko,
    Andrea Sanfilippo, Karsten Reuter, and Matthias Scheffler,
    'Resolution-of-identity approach to Hartree-Fock, hybrid density functionals,
    RPA, MP2, and GW with numeric atom-centered orbital basis functions'
    New Journal of Physics 14, 053020 (2012).
    http://dx.doi.org/10.1088/1367-2630/14/5/053020


  The provided symmetry information was generated with SPGlib:

    Atsushi Togo, Yusuke Seto, Dimitar Pashov
    SPGlib 1.7.3 obtained from http://spglib.sourceforge.net
    Copyright (C) 2008 Atsushi Togo


  The ELSI infrastructure was used in your run to solve the Kohn-Sham electronic structure.
  Please check out http://elsi-interchange.org to learn more.
  If scalability is important for your project, please acknowledge ELSI by citing:

    V. W-z. Yu, F. Corsetti, A. Garcia, W. P. Huhn, M. Jacquelin, W. Jia,
    B. Lange, L. Lin, J. Lu, W. Mi, A. Seifitokaldani, A. Vazquez-Mayagoitia,
    C. Yang, H. Yang, and V. Blum
    'ELSI: A unified software interface for Kohn-Sham electronic structure solvers'
    Computer Physics Communications 222, 267-285 (2018).
    http://dx.doi.org/10.1016/j.cpc.2017.09.007


  For the real-space grid partitioning and parallelization used in this calculation, please cite:

    Ville Havu, Volker Blum, Paula Havu, and Matthias Scheffler,
    'Efficient O(N) integration for all-electron electronic structure calculation'
    'using numerically tabulated basis functions'
    Journal of Computational Physics 228, 8367-8379 (2009).
    http://dx.doi.org/10.1016/j.jcp.2009.08.008


  The high-level electronic structure method used in your calculation
  employed our efficient localized resolution of identity for the Coulomb operator.
  Some calculations, especially large-scale hybrid density functional theory,
  are only possible thanks to this development. For this feature, please cite:

    Arvid Ihrig, Juergen Wieferink, Igor Ying Zhang, Matti Ropo, Xinguo Ren,
    Patrick Rinke, Matthias Scheffler, and Volker Blum,
    'Accurate localized resolution of identity approach for linear-scaling
    hybrid density functionals and for many-body perturbation theory'
    New Journal of Physics 117, 093020 (2015).
    http://dx.doi.org/10.1088/1367-2630/17/9/093020

  Of course, there are many other important community references, e.g., those cited in the
  above references. Our list is limited to references that describe implementations in the
  FHI-aims code. The reason is purely practical (length of this list) - please credit others as well.

 * A warning was issued further up regarding the accuracy of onsite integrals.
   An integral with a negative eigenvalue was among the flagged integrals.
   In most standard situations, this warning is probably harmless.
   If needed, this can be verified by adjusting the radial_multiplier flag.

------------------------------------------------------------
          Leaving FHI-aims.
          Date     :  20210825, Time     :  113454.263

          Computational steps:
          | Number of self-consistency cycles          :           12
          | Number of SCF (re)initializations          :            1

          Detailed time accounting                     :  max(cpu_time)    wall_clock(cpu1)
          | Total time                                 :      707.690 s         707.717 s
          | Preparation time                           :        0.755 s           0.756 s
          | Boundary condition initalization           :        0.249 s           0.249 s
          | Grid partitioning                          :        0.020 s           0.020 s
          | Preloading free-atom quantities on grid    :        0.068 s           0.069 s
          | Free-atom superposition energy             :        0.010 s           0.010 s
          | Total time for integrations                :        2.438 s           2.439 s
          | Product basis setup: Total time            :      410.267 s         410.281 s
          | Total time evaluating exchange matrix      :      121.938 s         121.585 s
          | Total time for solution of K.-S. equations :        4.541 s           4.541 s
          | Total time for density update              :        3.910 s           3.907 s
          | Total time for mixing                      :        0.015 s           0.015 s
          | Total time for Hartree multipole update    :        0.024 s           0.024 s
          | Total time for Hartree multipole sum       :        2.046 s           2.044 s
          | Total time for total energy evaluation     :        0.028 s           0.026 s
          | Total time for scaled ZORA corrections     :        0.000 s           0.000 s
          | Total time for band structures, DOS        :      161.151 s         161.189 s

          Partial memory accounting:
          | Residual value for overall tracked memory usage across tasks:     0.000000 MB (should be 0.000000 MB)
          | Peak values for overall tracked memory usage:
          |   Minimum:       44.532 MB (on task 2 after allocating aux_mat)
          |   Maximum:       63.482 MB (on task 3 after allocating aux_mat)
          |   Average:       51.232 MB
          | Largest tracked array allocation:
          |   Minimum:       41.344 MB (aux_mat on task 2)
          |   Maximum:       60.293 MB (aux_mat on task 3)
          |   Average:       48.043 MB
          Note:  These values currently only include a subset of arrays which are explicitly tracked.
          The "true" memory usage will be greater.

          Have a nice day.
------------------------------------------------------------
