------------------------------------------------------------
          Invoking FHI-aims ...

          When using FHI-aims, please cite the following reference:

            Volker Blum, Ralf Gehrke, Felix Hanke, Paula Havu,
            Ville Havu, Xinguo Ren, Karsten Reuter, and Matthias Scheffler,
            'Ab Initio Molecular Simulations with Numeric Atom-Centered Orbitals',
            Computer Physics Communications 180, 2175-2196 (2009)

          In addition, many other developments in FHI-aims are likely important for
          your particular application. A partial list of references is given at the end of
          this file. Thank you for giving credit to the authors of these developments.

          For any questions about FHI-aims, please visit our slack channel at

            https://fhi-aims.slack.com

          and our main development and support site at

            https://aims-git.rz-berlin.mpg.de .

          The latter site, in particular, has a wiki to collect information, as well
          as an issue tracker to log discussions, suggest improvements, and report issues
          or bugs. https://aims-git.rz-berlin.mpg.de is also the main development site
          of the project and all new and updated code versions can be obtained there.
          Please send an email to aims-coordinators@fhi-berlin.mpg.de and we will add
          you to these sites. They are for you and everyone is welcome there.

------------------------------------------------------------



  Date     :  20210824, Time     :  181400.142
  Time zero on CPU 1             :   0.263900000000000E-01  s.
  Internal wall clock time zero  :           399060840.142  s.

  FHI-aims created a unique identifier for this run for later identification
  aims_uuid : D80F59BE-D7C4-4B9F-ACCA-49A773EAB996

  Build configuration of the current instance of FHI-aims
  -------------------------------------------------------
  FHI-aims version      : 210226
  Commit number         : GITDIR-NOTFOUND
  CMake host system     : Linux-3.10.0-514.6.1.el7.x86_64
  CMake version         : 3.8.0-rc1
  Fortran compiler      : /apps/intel2018/compilers_and_libraries/linux/mpi/intel64/bin/mpiifort (Intel) version 18.0.5.20180823
  Fortran compiler flags: -fc=ifort -O3 -ip -fp-model precise -xCORE-AVX2 -qopt-zmm-usage=high
  C compiler            : /apps/intel2018/compilers_and_libraries_2018.5.274/linux/mpi/intel64/bin/mpiicc (Intel) version 18.0.5.20180823
  C compiler flags      : -O3 -ip -fp-model precise -std=gnu99 -xCORE-AVX2 -qopt-zmm-usage=high
  ELPA2 kernel          : AVX2
  Using MPI
  Using ScaLAPACK
  Using LibXC
  Using i-PI
  Using RLSY
  Linking against: /apps/intel2018/compilers_and_libraries_2018.5.274/linux/mkl/lib/intel64_lin/libmkl_intel_lp64.so
                   /apps/intel2018/compilers_and_libraries_2018.5.274/linux/mkl/lib/intel64_lin/libmkl_sequential.so
                   /apps/intel2018/compilers_and_libraries_2018.5.274/linux/mkl/lib/intel64_lin/libmkl_core.so
                   /apps/intel2018/compilers_and_libraries_2018.5.274/linux/mkl/lib/intel64_lin/libmkl_blacs_intelmpi_lp64.so
                   /apps/intel2018/compilers_and_libraries_2018.5.274/linux/mkl/lib/intel64_lin/libmkl_scalapack_lp64.so

  Using        4 parallel tasks.
  Task        0 on host mercury reporting.
  Task        1 on host mercury reporting.
  Task        2 on host mercury reporting.
  Task        3 on host mercury reporting.

  Performing system and environment tests:
  | Environment variable OMP_NUM_THREADS correctly set to 1.
  | Checking for ScaLAPACK...
  | Testing pdtran()...
  | All pdtran() tests passed.

  Obtaining array dimensions for all initial allocations:
  
  -----------------------------------------------------------------------
  Parsing control.in (first pass over file, find array dimensions only).
  The contents of control.in will be repeated verbatim below
  unless switched off by setting 'verbatim_writeout .false.' .
  in the first line of control.in .
  -----------------------------------------------------------------------
  
  xc              pbe
  relativistic    atomic_zora scalar
  k_grid          8 8 8
  relax_geometry  bfgs 5e-3
  relax_unit_cell full
  ################################################################################
  #
  #  FHI-aims code project
  #  VB, Fritz-Haber Institut, 2009
  #
  #  Suggested "light" defaults for Si atom (to be pasted into control.in file)
  #  Be sure to double-check any results obtained with these settings for post-processing,
  #  e.g., with the "tight" defaults and larger basis sets.
  #
  ################################################################################
    species        Si
  #     global species definitions
      nucleus             14
      mass                28.0855
  #
      l_hartree           4
  #
      cut_pot             3.5          1.5  1.0
      basis_dep_cutoff    1e-4
  #
      radial_base         42 5.0
      radial_multiplier   1
      angular_grids       specified
        division   0.5866   50
        division   0.9616  110
        division   1.2249  194
        division   1.3795  302
  #      division   1.4810  434
  #      division   1.5529  590
  #      division   1.6284  770
  #      division   1.7077  974
  #      division   2.4068 1202
  #      outer_grid   974
        outer_grid 302
  ################################################################################
  #
  #  Definition of "minimal" basis
  #
  ################################################################################
  #     valence basis states
      valence      3  s   2.
      valence      3  p   2.
  #     ion occupancy
      ion_occ      3  s   1.
      ion_occ      3  p   1.
  ################################################################################
  #
  #  Suggested additional basis functions. For production calculations,
  #  uncomment them one after another (the most important basis functions are
  #  listed first).
  #
  #  Constructed for dimers: 1.75 A, 2.0 A, 2.25 A, 2.75 A, 3.75 A
  #
  ################################################################################
  #  "First tier" - improvements: -571.96 meV to -37.03 meV
       hydro 3 d 4.2
       hydro 2 p 1.4
  #     hydro 4 f 6.2
       ionic 3 s auto
  #  "Second tier" - improvements: -16.76 meV to -3.03 meV
  #     hydro 3 d 9
  #     hydro 5 g 9.4
  #     hydro 4 p 4
  #     hydro 1 s 0.65
  #  "Third tier" - improvements: -3.89 meV to -0.60 meV
  #     ionic 3 d auto
  #     hydro 3 s 2.6
  #     hydro 4 f 8.4
  #     hydro 3 d 3.4
  #     hydro 3 p 7.8
  #  "Fourth tier" - improvements: -0.33 meV to -0.11 meV
  #     hydro 2 p 1.6
  #     hydro 5 g 10.8
  #     hydro 5 f 11.2
  #     hydro 3 d 1
  #     hydro 4 s 4.5
  #  Further basis functions that fell out of the optimization - noise
  #  level... < -0.08 meV
  #     hydro 4 d 6.6
  #     hydro 5 g 16.4
  #     hydro 4 d 9
  
  -----------------------------------------------------------------------
  Completed first pass over input file control.in .
  -----------------------------------------------------------------------
  
  
  -----------------------------------------------------------------------
  Parsing geometry.in (first pass over file, find array dimensions only).
  The contents of geometry.in will be repeated verbatim below
  unless switched off by setting 'verbatim_writeout .false.' .
  in the first line of geometry.in .
  -----------------------------------------------------------------------
  
  lattice_vector 0.00000 2.71500 2.71500
  lattice_vector 2.71500 0.00000 2.71500
  lattice_vector 2.71500 2.71500 0.00000
  
  atom_frac 0.00000 0.00000 0.00000 Si
  atom_frac 0.25000 0.25000 0.25000 Si
  
  
  -----------------------------------------------------------------------
  Completed first pass over input file geometry.in .
  -----------------------------------------------------------------------
  

  Basic array size parameters:
  | Number of species                 :        1
  | Number of atoms                   :        2
  | Number of lattice vectors         :        3
  | Max. basis fn. angular momentum   :        2
  | Max. atomic/ionic basis occupied n:        3
  | Max. number of basis fn. types    :        3
  | Max. radial fns per species/type  :        5
  | Max. logarithmic grid size        :     1346
  | Max. radial integration grid size :       42
  | Max. angular integration grid size:      302
  | Max. angular grid division number :        8
  | Radial grid for Hartree potential :     1346
  | Number of spin channels           :        1

------------------------------------------------------------
          Reading file control.in.
------------------------------------------------------------
  XC: Using PBE gradient-corrected functionals.
  Scalar relativistic treatment of kinetic energy: on-site free-atom approximation to ZORA.
  Found k-point grid:         8         8         8
  Geometry relaxation: Modified BFGS - TRM (trust radius method) for lattice optimization.
  Convergence accuracy for geometry relaxation: Maximum force <   0.500000E-02 eV/A.
 
  Reading configuration options for species Si                  .
  | Found nuclear charge :  14.0000
  | Found atomic mass :    28.0855000000000      amu
  | Found l_max for Hartree potential  :   4
  | Found cutoff potl. onset [A], width [A], scale factor :    3.50000    1.50000    1.00000
  | Threshold for basis-dependent cutoff potential is   0.100000E-03
  | Found data for basic radial integration grid :    42 points, outermost radius =    5.000 A
  | Found multiplier for basic radial grid :   1
  | Found angular grid specification: user-specified.
  | Specified grid contains     5 separate shells.
  | Check grid settings after all constraints further below.
  | Found free-atom valence shell :  3 s   2.000
  | Found free-atom valence shell :  3 p   2.000
  | Found free-ion valence shell :  3 s   1.000
  | Found free-ion valence shell :  3 p   1.000
  | Found hydrogenic basis function :  3 d   4.200
  | Found hydrogenic basis function :  2 p   1.400
  | Found ionic basis function :  3 s , default cutoff radius.
  Species Si                  : Missing cutoff potential type.
  Defaulting to exp(1/x)/(1-x)^2 type cutoff potential.
  Species Si: No 'logarithmic' tag. Using default grid for free atom:
  | Default logarithmic grid data [bohr] : 0.1000E-03 0.1000E+03 0.1012E+01
  | Will include ionic basis functions of  2.0-fold positive Si                   ion.
  Species Si: On-site basis accuracy parameter (for Gram-Schmidt orthonormalisation) not specified.
  Using default value basis_acc =  0.1000000E-03.
  Species Si                  : Using default innermost maximum threshold i_radial=  2 for radial functions.
  Species Si                  : Default cutoff onset for free atom density etc. : 0.35000000E+01 AA.
  Species Si                  : Basic radial grid will be enhanced according to radial_multiplier =   1, to contain    42 grid points.
 
  Finished reading input file 'control.in'.
 
------------------------------------------------------------


------------------------------------------------------------
          Reading geometry description geometry.in.
------------------------------------------------------------
  | The smallest distance between any two atoms is         2.35125897 AA.
  | The first atom of this pair is atom number                      1 .
  | The second atom of this pair is atom number                     2 .
  | Wigner-Seitz cell of the first atom image           0     1     0 .
  | (The Wigner-Seitz cell of the second atom is 0 0 0  by definition.)

  Symmetry information by spglib:
  | Precision set to  0.1E-04
  | Number of Operations  : 48
  | Space group           : 227
  | International         : Fd-3m
  | Schoenflies           : Oh^7
  Input structure read successfully.
  The structure contains        2 atoms,  and a total of         28.000 electrons.

  Input geometry:
  | Unit cell:
  |        0.00000000        2.71500000        2.71500000
  |        2.71500000        0.00000000        2.71500000
  |        2.71500000        2.71500000        0.00000000
  | Atomic structure:
  |       Atom                x [A]            y [A]            z [A]
  |    1: Species Si            0.00000000        0.00000000        0.00000000
  |    2: Species Si            1.35750000        1.35750000        1.35750000

  Lattice parameters for 3D lattice (in Angstroms) :     3.839590    3.839590    3.839590
  Angle(s) between unit vectors (in degrees)       :    60.000000   60.000000   60.000000


  Quantities derived from the lattice vectors:
  | Reciprocal lattice vector 1: -1.157124  1.157124  1.157124
  | Reciprocal lattice vector 2:  1.157124 -1.157124  1.157124
  | Reciprocal lattice vector 3:  1.157124  1.157124 -1.157124
  | Unit cell volume                               :   0.400258E+02  A^3

  Fractional coordinates:
                         L1                L2                L3
       atom_frac         0.00000000        0.00000000        0.00000000  Si
       atom_frac         0.25000000        0.25000000        0.25000000  Si

 
  Finished reading input file 'control.in'.
 

------------------------------------------------------------
          Reading geometry description geometry.in.
------------------------------------------------------------
 
  Consistency checks for stacksize environment parameter are next.
 
  | Maximum stacksize for task 0: unlimited
  | Maximum stacksize for task 1: unlimited
  | Maximum stacksize for task 2: unlimited
  | Maximum stacksize for task 3: unlimited
  | Current stacksize for task 0: unlimited
  | Current stacksize for task 1: unlimited
  | Current stacksize for task 2: unlimited
  | Current stacksize for task 3: unlimited
 
  Consistency checks for the contents of control.in are next.
 
  MPI_IN_PLACE appears to work with this MPI implementation.
  | Keeping use_mpi_in_place .true. (see manual).
  Target number of points in a grid batch is not set. Defaulting to  100
  Method for grid partitioning is not set. Defaulting to parallel hash+maxmin partitioning.
  Batch size limit is not set. Defaulting to    200
  By default, will store active basis functions for each batch.
  If in need of memory, prune_basis_once .false. can be used to disable this option.
  communication_type for Hartree potential was not specified.
  Defaulting to calc_hartree .
  Defaulting to Pulay charge density mixer.
  Pulay mixer: Number of relevant iterations not set.
  Defaulting to    8 iterations.
  Pulay mixer: Number of initial linear mixing iterations not set.
  Defaulting to    0 iterations.
  Work space size for distributed Hartree potential not set.
  Defaulting to   0.200000E+03 MB.
  Mixing parameter for charge density mixing has not been set.
  Using default: charge_mix_param =     0.0500.
  The mixing parameter will be adjusted in iteration number     2 of the first full s.c.f. cycle only.
  Algorithm-dependent basis array size parameters:
  | n_max_pulay                         :        8
  Maximum number of self-consistency iterations not provided.
  Presetting  1000 iterations.
  Presetting      1001 iterations before the initial mixing cycle
  is restarted anyway using the sc_init_iter criterion / keyword.
  Presetting a factor      1.000 between actual scf density residual
  and density convergence criterion sc_accuracy_rho below which sc_init_iter
  takes no effect.
 * No s.c.f. convergence criteria (sc_accuracy_*) were provided in control.in.
 * The run will proceed with a reasonable default guess, but please check whether.
 * the s.c.f. cycles seem to take too much or too little time.
  No maximum number of relaxation steps, defaulting to     1000
  Default initial Hessian is Lindh matrix (thres = 15.00) plus  0.200000E+01 eV/A^2 times unity.
  No maximum energy tolerance for TRM/BFGS moves, defaulting to   0.100000E-02
  Maximum energy tolerance by which TRM/BFGS trajectory may increase over multiple steps:   0.300000E-02
  No harmonic length scale. Defaulting to   0.250000E-01 A.
  No trust radius initializer. Defaulting to   0.200000E+00 A.
  Unit cell relaxation: Unit cell will be relaxed fully.
  Unit cell relaxation: Analytical stress will be used.
  Analytical stress will be computed.
  Analytical stress calculation: Only the upper triangle is calculated.
                                 Final output is symmetrized.
  Analytical stress calculation: scf convergence accuracy of stress not set.
                                 Analytical stress self-consistency will not be checked explicitly.
                                 Be sure to set other criteria like sc_accuracy_rho tight enough.
 * Notice: The s.c.f. convergence criterion sc_accuracy_rho was not provided.
 * We used to stop in this case, and ask the user to provide reasonable
 * scf convergence criteria. However, this led some users to employ criteria
 * that led to extremely long run times, e.g., for simple relaxation.
 * We now preset a default value for sc_accuracy_rho if it is not set.
 * You may still wish to check if this setting is too tight or too loose for your needs.
 * Based on n_atoms, FHI-aims chose sc_accuracy_rho =  0.100000E-05 .
  Force calculation: scf convergence accuracy of forces not set.
  Defaulting to 'sc_accuracy_forces not_checked'.
  Handling of forces: Unphysical translation and rotation will be removed from forces.
  No accuracy limit for integral partition fn. given. Defaulting to  0.1000E-14.
  No threshold value for u(r) in integrations given. Defaulting to  0.1000E-05.
  No occupation type (smearing scheme) given. Defaulting to Gaussian broadening, width =  0.1000E-01 eV.
  The width will be adjusted in iteration number     2 of the first full s.c.f. cycle only.
  S.C.F. convergence parameters will be adjusted in iteration number     2 of the first full s.c.f. cycle only.
  No accuracy for occupation numbers given. Defaulting to  0.1000E-12.
  No threshold value for occupation numbers given. Defaulting to  0.0000E+00.
  No accuracy for fermi level given. Defaulting to  0.1000E-19.
  Maximum # of iterations to find E_F not set. Defaulting to  200.
  Preferred method for the eigenvalue solver ('KS_method') not specified in 'control.in'.
  Defaulting to serial version, LAPACK (via ELSI), since more k-points than CPUs available.
  Will not use alltoall communication since running on < 1024 CPUs.
  Threshold for basis singularities not set.
  Default threshold for basis singularities:  0.1000E-04
  partition_type (choice of integration weights) for integrals was not specified.
  | Using a version of the partition function of Stratmann and coworkers ('stratmann_sparse').
  | At each grid point, the set of atoms used to build the partition table is smoothly restricted to
  | only those atoms whose free-atom density would be non-zero at that grid point.
  Partitioning for Hartree potential was not defined. Using partition_type for integrals.
  | Adjusted default value of keyword multip_moments_threshold to:       0.10000000E-11
  | This value may affect high angular momentum components of the Hartree potential in periodic systems.
  Spin handling was not defined in control.in. Defaulting to unpolarized case.
  Angular momentum expansion for Kerker preconditioner not set explicitly.
  | Using default value of   0
  No explicit requirement for turning off preconditioner.
  | By default, it will be turned off when the charge convergence reaches
  | sc_accuracy_rho  =   0.100000E-05
  No special mixing parameter while Kerker preconditioner is on.
  Using default: charge_mix_param =     0.0500.
  No q(lm)/r^(l+1) cutoff set for long-range Hartree potential.
  | Using default value of  0.100000E-09 .
  | Verify using the multipole_threshold keyword.
  Defaulting to new monopole extrapolation.
  Density update method: automatic selection selected.
  Using density matrix based charge density update.
  Using density matrix based charge density update.
  Using packed matrix style: index .
  Geometry relaxation: A file "geometry.in.next_step" is written out by default after each step.
  | This file contains the geometry of the current relaxation step as well as
  | the current Hessian matrix needed to restart the relaxation algorithm.
  | If you do not want part or all of this information, use the keywords
  | "write_restart_geometry" or "hessian_to_restart_geometry" to switch the output off.
  Defaulting to use time-reversal symmetry for k-point grid.
  Charge integration errors on the 3D integration grid will be compensated
  by explicit normalization and distribution of residual charges.
  Use the "compensate_multipole_errors" flag to change this behaviour.
  Set 'collect_eigenvectors' to be '.true.' for all serial calculations. This is mandatory.
  Set 'collect_eigenvectors' to be '.true.' for KS_method lapack_fast and serial.
 
  Consistency checks for the contents of geometry.in are next.
 

  Range separation radius for Ewald summation (hartree_convergence_parameter):      3.88818726 bohr.
  Number of empty states per atom not set in control.in - providing a guess from actual geometry.
  | Total number of empty states used during s.c.f. cycle:        6
  If you use a very high smearing, use empty_states (per atom!) in control.in to increase this value.

  Structure-dependent array size parameters: 
  | Maximum number of distinct radial functions  :        8
  | Maximum number of basis functions            :       36
  | Number of Kohn-Sham states (occupied + empty):       20
------------------------------------------------------------

------------------------------------------------------------
          Preparing all fixed parts of the calculation.
------------------------------------------------------------
  Determining machine precision:
    2.225073858507201E-308
  Setting up grids for atomic and cluster calculations.

  Creating wave function, potential, and density for free atoms.

  Species: Si

  List of occupied orbitals and eigenvalues:
    n    l              occ      energy [Ha]    energy [eV]
    1    0           2.0000       -65.767597     -1789.6274
    2    0           2.0000        -5.115610      -139.2028
    3    0           2.0000        -0.388877       -10.5819
    2    1           6.0000        -3.500197       -95.2452
    3    1           2.0000        -0.140803        -3.8315


  Adding cutoff potential to free-atom effective potential.
  Creating fixed part of basis set: Ionic, confined, hydrogenic.
 
  Si                   ion:

  List of free ionic orbitals and eigenvalues:
    n    l      energy [Ha]    energy [eV]
    1    0       -66.641157     -1813.3982
    2    0        -5.964274      -162.2962
    3    0        -1.073878       -29.2217
    2    1        -4.350005      -118.3697
    3    1        -0.776571       -21.1316


  List of ionic basis orbitals and eigenvalues:
    n    l      energy [Ha]    energy [eV]    outer radius [A]
    3    0        -1.073857       -29.2211       4.214062

 
  Si                   hydrogenic:
 
  List of hydrogenic basis orbitals: 
    n    l      effective z      eigenvalue [eV]  inner max. [A]     outer max. [A]     outer radius [A]   
    3    2         4.200000       -26.6624           1.139231           1.139231           4.534782
    2    1         1.400000        -6.4613           1.472672           1.472672           4.590560
 
  Creating atomic-like basis functions for current effective potential.

  Species Si                  :

  List of atomic basis orbitals and eigenvalues:
    n    l      energy [Ha]    energy [eV]    outer radius [A]
    1    0       -65.767597     -1789.6274       0.789468
    2    0        -5.115610      -139.2028       2.815114
    3    0        -0.388877       -10.5819       4.534782
    2    1        -3.500197       -95.2452       3.259919
    3    1        -0.140803        -3.8315       4.590560

  Assembling full basis from fixed parts.
  | Species Si :   atomic orbital   1 s accepted.
  | Species Si :   atomic orbital   2 s accepted.
  | Species Si :    ionic orbital   3 s accepted.
  | Species Si :   atomic orbital   3 s accepted.
  | Species Si :   atomic orbital   2 p accepted.
  | Species Si :   atomic orbital   3 p accepted.
  | Species Si :    hydro orbital   2 p accepted.
  | Species Si :    hydro orbital   3 d accepted.
 
  Basis size parameters after reduction:
  | Total number of radial functions:        8
  | Total number of basis functions :       36
 
  Per-task memory consumption for arrays in subroutine allocate_ext:
  |           2.757868MB.
  Testing on-site integration grid accuracy.
  |  Species  Function  <phi|h_atom|phi> (log., in eV)  <phi|h_atom|phi> (rad., in eV)
           1        1              -1789.6273740966              -1789.6266345813
           1        2               -139.2028173376               -139.2028132357
           1        3                -10.2237226190                -10.2235219160
           1        4                  5.6355365073                  5.5558633521 ***
           1        5                -95.2452114632                -95.2452114537
           1        6                 -3.8413965043                 -3.8571292824
           1        7                  6.4035522332                  6.2277973139 ***
           1        8                  6.3860095444                  6.3839142324
 * Note: Onsite integrals marked "***" above are less accurate than
 * onsite_accuracy_threshold =    0.03000 eV. Usually, this is harmless.
 * When in doubt, tighten the "radial" and/or "radial_multiplier" flags to check.

  Preparing densities etc. for the partition functions (integrals / Hartree potential).

  Preparations completed.
  max(cpu_time)          :      0.194 s.
  Wall clock time (cpu1) :      0.194 s.
------------------------------------------------------------

------------------------------------------------------------
          Begin self-consistency loop: Initialization.

          Date     :  20210824, Time     :  181400.425
------------------------------------------------------------

  Initializing index lists of integration centers etc. from given atomic structure:
  Mapping all atomic coordinates to central unit cell.

  Initializing the k-points
  Using symmetry for reducing the k-points
  | k-points reduced from:      512 to      260
  | Number of k-points                             :       260
  The eigenvectors in the calculations are COMPLEX.
  | K-points in task   0:        65
  | K-points in task   1:        65
  | K-points in task   2:        65
  | K-points in task   3:        65
  | Number of basis functions in the Hamiltonian integrals :      1472
  | Number of basis functions in a single unit cell        :        36
  | Number of centers in hartree potential         :       732
  | Number of centers in hartree multipole         :       318
  | Number of centers in electron density summation:       198
  | Number of centers in basis integrals           :       228
  | Number of centers in integrals                 :       101
  | Number of centers in hamiltonian               :       198
  | Consuming        455 KiB for k_phase.
  | Number of super-cells (origin) [n_cells]                     :        2197
  | Number of super-cells (after PM_index) [n_cells]             :         112
  | Number of super-cells in hamiltonian [n_cells_in_hamiltonian]:         112
  | Size of matrix packed + index [n_hamiltonian_matrix_size] :       43287

  Initializing relaxation algorithms.
  Finished initialization of distributed Hessian storage.
  | Global dimension:        15
  | BLACS block size:         4
  | Number of workers:        4

  | Estimated reciprocal-space cutoff momentum G_max:         2.40094914 bohr^-1 .
  | Reciprocal lattice points for long-range Hartree potential:      58
  Partitioning the integration grid into batches with parallel hashing+maxmin method.
  | Number of batches:      141
  | Maximal batch size:     107
  | Minimal batch size:      50
  | Average batch size:      79.489
  | Standard deviation of batch sizes:      15.046

  Integration load balanced across     4 MPI tasks.
  Work distribution over tasks is as follows:
  Task     0 has       2848 integration points.
  Task     1 has       2793 integration points.
  Task     2 has       2765 integration points.
  Task     3 has       2802 integration points.
  Initializing partition tables, free-atom densities, potentials, etc. across the integration grid (initialize_grid_storage).
  | initialize_grid_storage: Actual outermost partition radius vs. multipole_radius_free
  | (-- VB: in principle, multipole_radius_free should be larger, hence this output)
  | Species        1: Confinement radius =              4.999999999999999 AA, multipole_radius_free =              5.000694715736543 AA.
  | Species        1: outer_partition_radius set to              5.000694715736543 AA .
  | The sparse table of interatomic distances needs        255.65 kbyte instead of       415.87 kbyte of memory.
  | Net number of integration points:    11208
  | of which are non-zero points    :     9820
  | Numerical average free-atom electrostatic potential    :    -13.13394093 eV
  Renormalizing the initial density to the exact electron count on the 3D integration grid.
  | Initial density: Formal number of electrons (from input files) :      28.0000000000
  | Integrated number of electrons on 3D grid     :      28.0049838157
  | Charge integration error                      :       0.0049838157
  | Normalization factor for density and gradient :       0.9998220383
  Renormalizing the free-atom superposition density to the exact electron count on the 3D integration grid.
  | Formal number of electrons (from input files) :      28.0000000000
  | Integrated number of electrons on 3D grid     :      28.0049838157
  | Charge integration error                      :       0.0049838157
  | Normalization factor for density and gradient :       0.9998220383
  Obtaining max. number of non-zero basis functions in each batch (get_n_compute_maxes).
  | Maximal number of non-zero basis functions:      470 in task     0
  | Maximal number of non-zero basis functions:      470 in task     1
  | Maximal number of non-zero basis functions:      467 in task     2
  | Maximal number of non-zero basis functions:      468 in task     3
  Allocating        0.714 MB for KS_eigenvector_complex
  Integrating Hamiltonian matrix: batch-based integration.
  Time summed over all CPUs for integration: real work        0.764 s, elapsed        0.816 s
  Integrating overlap matrix.
  Time summed over all CPUs for integration: real work        0.561 s, elapsed        0.633 s
  Decreasing sparse matrix size:
  | Tolerance:  0.1000E-12
  Hamiltonian matrix
  | Array has    36871 nonzero elements out of    43287 elements
  | Sparsity factor is 0.148
  Overlap matrix
  | Array has    35868 nonzero elements out of    43287 elements
  | Sparsity factor is 0.171
  New size of hamiltonian matrix:       37127

  Updating Kohn-Sham eigenvalues and eigenvectors using ELSI and the (modified) LAPACK eigensolver.
  Singularity check in k-point 4, task 0 (analysis for other k-points/tasks may follow below):
  Overlap matrix is not singular
  | Lowest and highest eigenvalues :  0.6502E-03,  0.7037E+01
  Finished singularity check of overlap matrix
  | Time :     0.001 s
  Starting LAPACK eigensolver
  Finished Cholesky decomposition
  | Time :     0.000 s
  Finished transformation to standard eigenproblem
  | Time :     0.000 s
  Finished solving standard eigenproblem
  | Time :     0.001 s
  Finished back-transformation of eigenvectors
  | Time :     0.000 s

  Obtaining occupation numbers and chemical potential using ELSI.
  | Chemical potential (Fermi level):    -6.04358187 eV
  Writing Kohn-Sham eigenvalues.
  K-point:       1 at    0.000000    0.000000    0.000000 (in units of recip. lattice)

  State    Occupation    Eigenvalue [Ha]    Eigenvalue [eV]
      1       2.00000         -65.789115        -1790.21291
      2       2.00000         -65.789115        -1790.21291
      3       2.00000          -5.141763         -139.91450
      4       2.00000          -5.141478         -139.90674
      5       2.00000          -3.526367          -95.95733
      6       2.00000          -3.526367          -95.95733
      7       2.00000          -3.526367          -95.95733
      8       2.00000          -3.525741          -95.94029
      9       2.00000          -3.525741          -95.94029
     10       2.00000          -3.525741          -95.94029
     11       2.00000          -0.661489          -18.00002
     12       2.00000          -0.226000           -6.14977
     13       2.00000          -0.226000           -6.14977
     14       2.00000          -0.226000           -6.14977
     15       0.00000          -0.122752           -3.34025
     16       0.00000          -0.122752           -3.34025
     17       0.00000          -0.122752           -3.34025
     18       0.00000          -0.098953           -2.69266
     19       0.00000           0.072041            1.96033
     20       0.00000           0.072041            1.96033

  What follows are estimated values for band gap, HOMO, LUMO, etc.
  | They are estimated on a discrete k-point grid and not necessarily exact.
  | For converged numbers, create a DOS and/or band structure plot on a denser k-grid.

  Highest occupied state (VBM) at     -6.14977248 eV (relative to internal zero)
  | Occupation number:      2.00000000
  | K-point:       1 at    0.000000    0.000000    0.000000 (in units of recip. lattice)

  Lowest unoccupied state (CBM) at    -5.24848423 eV (relative to internal zero)
  | Occupation number:      0.00000000
  | K-point:      30 at    0.000000    0.625000    0.625000 (in units of recip. lattice)

  ESTIMATED overall HOMO-LUMO gap:      0.90128825 eV between HOMO at k-point 1 and LUMO at k-point 30
  | This appears to be an indirect band gap.
  | Smallest direct gap :      2.80952616 eV for k_point 1 at    0.000000    0.000000    0.000000 (in units of recip. lattice)
  The gap value is above 0.2 eV. Unless you are using a very sparse k-point grid,
  this system is most likely an insulator or a semiconductor.
  Calculating total energy contributions from superposition of free atom densities.

  Total energy components:
  | Sum of eigenvalues            :        -329.30677902 Ha       -8960.89338243 eV
  | XC energy correction          :         -41.72346576 Ha       -1135.35326941 eV
  | XC potential correction       :          53.88391950 Ha        1466.25605176 eV
  | Free-atom electrostatic energy:        -263.59230454 Ha       -7172.71155008 eV
  | Hartree energy correction     :           0.00000000 Ha           0.00000000 eV
  | Entropy correction            :          -0.00000000 Ha          -0.00000000 eV
  | ---------------------------
  | Total energy                  :        -580.73862982 Ha      -15802.70215016 eV
  | Total energy, T -> 0          :        -580.73862982 Ha      -15802.70215016 eV  <-- do not rely on this value for anything but (periodic) metals
  | Electronic free energy        :        -580.73862982 Ha      -15802.70215016 eV

  Derived energy quantities:
  | Kinetic energy                :         582.31393794 Ha       15845.56846509 eV
  | Electrostatic energy          :       -1121.32910201 Ha      -30512.91734584 eV
  | Energy correction for multipole
  | error in Hartree potential    :           0.00000000 Ha           0.00000000 eV
  | Sum of eigenvalues per atom                           :       -4480.44669121 eV
  | Total energy (T->0) per atom                          :       -7901.35107508 eV  <-- do not rely on this value for anything but (periodic) metals
  | Electronic free energy per atom                       :       -7901.35107508 eV
  Initialize hartree_potential_storage
  Max. number of atoms included in rho_multipole:            2

  End scf initialization - timings             :  max(cpu_time)    wall_clock(cpu1)
  | Time for scf. initialization               :        0.584 s           0.584 s
  | Boundary condition initialization          :        0.052 s           0.052 s
  | Relaxation initialization                  :        0.001 s           0.001 s
  | Integration                                :        0.367 s           0.367 s
  | Solution of K.-S. eqns.                    :        0.058 s           0.058 s
  | Grid partitioning                          :        0.020 s           0.021 s
  | Preloading free-atom quantities on grid    :        0.071 s           0.072 s
  | Free-atom superposition energy             :        0.012 s           0.012 s
  | Total energy evaluation                    :        0.000 s           0.000 s

  Partial memory accounting:
  | Current value for overall tracked memory usage:
  |   Minimum:        1.427 MB (on task 3)
  |   Maximum:        1.427 MB (on task 0)
  |   Average:        1.427 MB
  | Peak value for overall tracked memory usage:
  |   Minimum:        4.363 MB (on task 2 after allocating wave)
  |   Maximum:        4.392 MB (on task 0 after allocating wave)
  |   Average:        4.380 MB
  | Largest tracked array allocation so far:
  |   Minimum:        1.664 MB (hamiltonian_shell on task 2)
  |   Maximum:        1.685 MB (hamiltonian_shell on task 0)
  |   Average:        1.676 MB
  Note:  These values currently only include a subset of arrays which are explicitly tracked.
  The "true" memory usage will be greater.
------------------------------------------------------------
  Evaluating new KS density using the density matrix
  Evaluating density matrix
  Time summed over all CPUs for getting density from density matrix: real work        1.241 s, elapsed        1.319 s
  Integration grid: deviation in total charge (<rho> - N_e) =  -3.552714E-15

------------------------------------------------------------
          Begin self-consistency iteration #    1

  Date     :  20210824, Time     :  181401.350
------------------------------------------------------------
  Pulay mixing of updated and previous charge densities.
  Renormalizing the density to the exact electron count on the 3D integration grid.
  | Formal number of electrons (from input files) :      28.0000000000
  | Integrated number of electrons on 3D grid     :      27.9997858522
  | Charge integration error                      :      -0.0002141478
  | Normalization factor for density and gradient :       1.0000076482

  Evaluating partitioned Hartree potential by multipole expansion.
  | Original multipole sum: apparent total charge =  -0.729417E-13
  | Sum of charges compensated after spline to logarithmic grids =  -0.425784E-05
  | Analytical far-field extrapolation by fixed multipoles:
  | Hartree multipole sum: apparent total charge =   0.000000E+00
  Summing up the Hartree potential.
  Time summed over all CPUs for potential: real work        0.532 s, elapsed        0.538 s
  | RMS charge density error from multipole expansion :   0.534103E-03
  | Average real-space part of the electrostatic potential :      0.01855931 eV

  Integrating Hamiltonian matrix: batch-based integration.
  Time summed over all CPUs for integration: real work        0.757 s, elapsed        0.811 s

  Updating Kohn-Sham eigenvalues and eigenvectors using ELSI and the (modified) LAPACK eigensolver.
  Starting LAPACK eigensolver
  Finished Cholesky decomposition
  | Time :     0.000 s
  Finished transformation to standard eigenproblem
  | Time :     0.000 s
  Finished solving standard eigenproblem
  | Time :     0.001 s
  Finished back-transformation of eigenvectors
  | Time :     0.000 s

  Obtaining occupation numbers and chemical potential using ELSI.
  | Chemical potential (Fermi level):    -6.02116439 eV
  Writing Kohn-Sham eigenvalues.
  K-point:       1 at    0.000000    0.000000    0.000000 (in units of recip. lattice)

  State    Occupation    Eigenvalue [Ha]    Eigenvalue [eV]
      1       2.00000         -65.786654        -1790.14593
      2       2.00000         -65.786654        -1790.14593
      3       2.00000          -5.140036         -139.86751
      4       2.00000          -5.139751         -139.85974
      5       2.00000          -3.524580          -95.90871
      6       2.00000          -3.524580          -95.90871
      7       2.00000          -3.524580          -95.90871
      8       2.00000          -3.523954          -95.89167
      9       2.00000          -3.523954          -95.89167
     10       2.00000          -3.523954          -95.89167
     11       2.00000          -0.660766          -17.98036
     12       2.00000          -0.225046           -6.12380
     13       2.00000          -0.225046           -6.12380
     14       2.00000          -0.225046           -6.12380
     15       0.00000          -0.122196           -3.32513
     16       0.00000          -0.122196           -3.32513
     17       0.00000          -0.122196           -3.32513
     18       0.00000          -0.097818           -2.66176
     19       0.00000           0.072558            1.97440
     20       0.00000           0.072558            1.97440

  What follows are estimated values for band gap, HOMO, LUMO, etc.
  | They are estimated on a discrete k-point grid and not necessarily exact.
  | For converged numbers, create a DOS and/or band structure plot on a denser k-grid.

  Highest occupied state (VBM) at     -6.12380500 eV (relative to internal zero)
  | Occupation number:      2.00000000
  | K-point:       1 at    0.000000    0.000000    0.000000 (in units of recip. lattice)

  Lowest unoccupied state (CBM) at    -5.23834997 eV (relative to internal zero)
  | Occupation number:      0.00000000
  | K-point:     133 at    0.375000    0.000000    0.375000 (in units of recip. lattice)

  ESTIMATED overall HOMO-LUMO gap:      0.88545503 eV between HOMO at k-point 1 and LUMO at k-point 133
  | This appears to be an indirect band gap.
  | Smallest direct gap :      2.79867145 eV for k_point 1 at    0.000000    0.000000    0.000000 (in units of recip. lattice)
  The gap value is above 0.2 eV. Unless you are using a very sparse k-point grid,
  this system is most likely an insulator or a semiconductor.

  Total energy components:
  | Sum of eigenvalues            :        -329.26241094 Ha       -8959.68606558 eV
  | XC energy correction          :         -41.72673612 Ha       -1135.44226053 eV
  | XC potential correction       :          53.88815103 Ha        1466.37119777 eV
  | Free-atom electrostatic energy:        -263.59230454 Ha       -7172.71155008 eV
  | Hartree energy correction     :          -0.04484696 Ha          -1.22034778 eV
  | Entropy correction            :          -0.00000000 Ha          -0.00000000 eV
  | ---------------------------
  | Total energy                  :        -580.73814753 Ha      -15802.68902621 eV
  | Total energy, T -> 0          :        -580.73814753 Ha      -15802.68902621 eV  <-- do not rely on this value for anything but (periodic) metals
  | Electronic free energy        :        -580.73814753 Ha      -15802.68902621 eV

  Derived energy quantities:
  | Kinetic energy                :         582.33348623 Ha       15846.10040111 eV
  | Electrostatic energy          :       -1121.34489764 Ha      -30513.34716678 eV
  | Energy correction for multipole
  | error in Hartree potential    :           0.00069339 Ha           0.01886818 eV
  | Sum of eigenvalues per atom                           :       -4479.84303279 eV
  | Total energy (T->0) per atom                          :       -7901.34451310 eV  <-- do not rely on this value for anything but (periodic) metals
  | Electronic free energy per atom                       :       -7901.34451310 eV

  Self-consistency convergence accuracy:
  | Change of charge density      :  0.1049E+00
  | Change of sum of eigenvalues  :  0.1207E+01 eV
  | Change of total energy        :  0.1312E-01 eV

  Evaluating new KS density using the density matrix
  Evaluating density matrix
  Time summed over all CPUs for getting density from density matrix: real work        1.233 s, elapsed        1.321 s
  Integration grid: deviation in total charge (<rho> - N_e) =   2.131628E-14
  End self-consistency iteration #     1       :  max(cpu_time)    wall_clock(cpu1)
  | Time for this iteration                    :        0.809 s           0.808 s
  | Charge density update                      :        0.341 s           0.340 s
  | Density mixing & preconditioning           :        0.079 s           0.078 s
  | Hartree multipole update                   :        0.001 s           0.002 s
  | Hartree multipole summation                :        0.138 s           0.138 s
  | Integration                                :        0.205 s           0.205 s
  | Solution of K.-S. eqns.                    :        0.044 s           0.044 s
  | Total energy evaluation                    :        0.000 s           0.001 s

  Partial memory accounting:
  | Current value for overall tracked memory usage:
  |   Minimum:        1.427 MB (on task 3)
  |   Maximum:        1.427 MB (on task 0)
  |   Average:        1.427 MB
  | Peak value for overall tracked memory usage:
  |   Minimum:        5.379 MB (on task 2 after allocating gradient_basis_wave)
  |   Maximum:        5.415 MB (on task 0 after allocating gradient_basis_wave)
  |   Average:        5.400 MB
  | Largest tracked array allocation so far:
  |   Minimum:        1.664 MB (hamiltonian_shell on task 2)
  |   Maximum:        1.685 MB (hamiltonian_shell on task 0)
  |   Average:        1.676 MB
  Note:  These values currently only include a subset of arrays which are explicitly tracked.
  The "true" memory usage will be greater.
------------------------------------------------------------

------------------------------------------------------------
          Begin self-consistency iteration #    2

  Date     :  20210824, Time     :  181402.158
------------------------------------------------------------
  Pulay mixing of updated and previous charge densities.
  Renormalizing the density to the exact electron count on the 3D integration grid.
  | Formal number of electrons (from input files) :      28.0000000000
  | Integrated number of electrons on 3D grid     :      27.9962724127
  | Charge integration error                      :      -0.0037275873
  | Normalization factor for density and gradient :       1.0001331458

  Evaluating partitioned Hartree potential by multipole expansion.
  | Original multipole sum: apparent total charge =  -0.542442E-13
  | Sum of charges compensated after spline to logarithmic grids =  -0.806512E-04
  | Analytical far-field extrapolation by fixed multipoles:
  | Hartree multipole sum: apparent total charge =   0.000000E+00
  Summing up the Hartree potential.
  Time summed over all CPUs for potential: real work        0.636 s, elapsed        0.645 s
  | RMS charge density error from multipole expansion :   0.101152E-01
  | Average real-space part of the electrostatic potential :      0.34796734 eV

  Integrating Hamiltonian matrix: batch-based integration.
  Time summed over all CPUs for integration: real work        0.754 s, elapsed        0.825 s

  Updating Kohn-Sham eigenvalues and eigenvectors using ELSI and the (modified) LAPACK eigensolver.
  Starting LAPACK eigensolver
  Finished Cholesky decomposition
  | Time :     0.000 s
  Finished transformation to standard eigenproblem
  | Time :     0.001 s
  Finished solving standard eigenproblem
  | Time :     0.000 s
  Finished back-transformation of eigenvectors
  | Time :     0.000 s

  Obtaining occupation numbers and chemical potential using ELSI.
  | Chemical potential (Fermi level):    -5.15311921 eV
  What follows are estimated values for band gap, HOMO, LUMO, etc.
  | They are estimated on a discrete k-point grid and not necessarily exact.
  | For converged numbers, create a DOS and/or band structure plot on a denser k-grid.

  Highest occupied state (VBM) at     -5.62840134 eV (relative to internal zero)
  | Occupation number:      2.00000000
  | K-point:       1 at    0.000000    0.000000    0.000000 (in units of recip. lattice)

  Lowest unoccupied state (CBM) at    -5.00973739 eV (relative to internal zero)
  | Occupation number:      0.00000000
  | K-point:      30 at    0.000000    0.625000    0.625000 (in units of recip. lattice)

  ESTIMATED overall HOMO-LUMO gap:      0.61866395 eV between HOMO at k-point 1 and LUMO at k-point 30
  | This appears to be an indirect band gap.
  | Smallest direct gap :      2.59378220 eV for k_point 1 at    0.000000    0.000000    0.000000 (in units of recip. lattice)
  The gap value is above 0.2 eV. Unless you are using a very sparse k-point grid,
  this system is most likely an insulator or a semiconductor.

  Checking to see if s.c.f. parameters should be adjusted.
  The system likely has a gap. Increased the default Pulay mixing parameter (charge_mix_param). Value:   0.200000 .
  Kept the default occupation width. Value:   0.010000 eV.

  Total energy components:
  | Sum of eigenvalues            :        -328.47635427 Ha       -8938.29637531 eV
  | XC energy correction          :         -41.79601925 Ha       -1137.32755050 eV
  | XC potential correction       :          53.97671319 Ha        1468.78109669 eV
  | Free-atom electrostatic energy:        -263.59230454 Ha       -7172.71155008 eV
  | Hartree energy correction     :          -0.84661701 Ha         -23.03762086 eV
  | Entropy correction            :          -0.00000000 Ha          -0.00000000 eV
  | ---------------------------
  | Total energy                  :        -580.73458188 Ha      -15802.59200006 eV
  | Total energy, T -> 0          :        -580.73458188 Ha      -15802.59200006 eV  <-- do not rely on this value for anything but (periodic) metals
  | Electronic free energy        :        -580.73458188 Ha      -15802.59200006 eV

  Derived energy quantities:
  | Kinetic energy                :         582.65206644 Ha       15854.76940964 eV
  | Electrostatic energy          :       -1121.59062907 Ha      -30520.03385920 eV
  | Energy correction for multipole
  | error in Hartree potential    :           0.01315051 Ha           0.35784356 eV
  | Sum of eigenvalues per atom                           :       -4469.14818766 eV
  | Total energy (T->0) per atom                          :       -7901.29600003 eV  <-- do not rely on this value for anything but (periodic) metals
  | Electronic free energy per atom                       :       -7901.29600003 eV

  Self-consistency convergence accuracy:
  | Change of charge density      :  0.9948E-01
  | Change of sum of eigenvalues  :  0.2139E+02 eV
  | Change of total energy        :  0.9703E-01 eV

  Evaluating new KS density using the density matrix
  Evaluating density matrix
  Time summed over all CPUs for getting density from density matrix: real work        1.269 s, elapsed        1.336 s
  Integration grid: deviation in total charge (<rho> - N_e) =   1.421085E-14
  End self-consistency iteration #     2       :  max(cpu_time)    wall_clock(cpu1)
  | Time for this iteration                    :        0.850 s           0.851 s
  | Charge density update                      :        0.344 s           0.344 s
  | Density mixing & preconditioning           :        0.081 s           0.081 s
  | Hartree multipole update                   :        0.001 s           0.002 s
  | Hartree multipole summation                :        0.166 s           0.166 s
  | Integration                                :        0.211 s           0.211 s
  | Solution of K.-S. eqns.                    :        0.046 s           0.046 s
  | Total energy evaluation                    :        0.000 s           0.000 s

  Partial memory accounting:
  | Current value for overall tracked memory usage:
  |   Minimum:        1.428 MB (on task 3)
  |   Maximum:        1.428 MB (on task 0)
  |   Average:        1.428 MB
  | Peak value for overall tracked memory usage:
  |   Minimum:        5.379 MB (on task 2 after allocating gradient_basis_wave)
  |   Maximum:        5.415 MB (on task 0 after allocating gradient_basis_wave)
  |   Average:        5.400 MB
  | Largest tracked array allocation so far:
  |   Minimum:        1.664 MB (hamiltonian_shell on task 2)
  |   Maximum:        1.685 MB (hamiltonian_shell on task 0)
  |   Average:        1.676 MB
  Note:  These values currently only include a subset of arrays which are explicitly tracked.
  The "true" memory usage will be greater.
------------------------------------------------------------

------------------------------------------------------------
          Begin self-consistency iteration #    3

  Date     :  20210824, Time     :  181403.010
------------------------------------------------------------
  Pulay mixing of updated and previous charge densities.
  Renormalizing the density to the exact electron count on the 3D integration grid.
  | Formal number of electrons (from input files) :      28.0000000000
  | Integrated number of electrons on 3D grid     :      28.0007724587
  | Charge integration error                      :       0.0007724587
  | Normalization factor for density and gradient :       0.9999724129

  Evaluating partitioned Hartree potential by multipole expansion.
  | Original multipole sum: apparent total charge =   0.246100E-14
  | Sum of charges compensated after spline to logarithmic grids =  -0.866953E-04
  | Analytical far-field extrapolation by fixed multipoles:
  | Hartree multipole sum: apparent total charge =   0.000000E+00
  Summing up the Hartree potential.
  Time summed over all CPUs for potential: real work        0.632 s, elapsed        0.638 s
  | RMS charge density error from multipole expansion :   0.107619E-01
  | Average real-space part of the electrostatic potential :      0.33567466 eV

  Integrating Hamiltonian matrix: batch-based integration.
  Time summed over all CPUs for integration: real work        0.752 s, elapsed        0.810 s

  Updating Kohn-Sham eigenvalues and eigenvectors using ELSI and the (modified) LAPACK eigensolver.
  Starting LAPACK eigensolver
  Finished Cholesky decomposition
  | Time :     0.000 s
  Finished transformation to standard eigenproblem
  | Time :     0.001 s
  Finished solving standard eigenproblem
  | Time :     0.000 s
  Finished back-transformation of eigenvectors
  | Time :     0.000 s

  Obtaining occupation numbers and chemical potential using ELSI.
  | Chemical potential (Fermi level):    -5.17207581 eV
  What follows are estimated values for band gap, HOMO, LUMO, etc.
  | They are estimated on a discrete k-point grid and not necessarily exact.
  | For converged numbers, create a DOS and/or band structure plot on a denser k-grid.

  Highest occupied state (VBM) at     -5.64503344 eV (relative to internal zero)
  | Occupation number:      2.00000000
  | K-point:       1 at    0.000000    0.000000    0.000000 (in units of recip. lattice)

  Lowest unoccupied state (CBM) at    -5.01041409 eV (relative to internal zero)
  | Occupation number:      0.00000000
  | K-point:      30 at    0.000000    0.625000    0.625000 (in units of recip. lattice)

  ESTIMATED overall HOMO-LUMO gap:      0.63461935 eV between HOMO at k-point 1 and LUMO at k-point 30
  | This appears to be an indirect band gap.
  | Smallest direct gap :      2.59399934 eV for k_point 1 at    0.000000    0.000000    0.000000 (in units of recip. lattice)
  The gap value is above 0.2 eV. Unless you are using a very sparse k-point grid,
  this system is most likely an insulator or a semiconductor.

  Total energy components:
  | Sum of eigenvalues            :        -328.61603142 Ha       -8942.09718372 eV
  | XC energy correction          :         -41.78397603 Ha       -1136.99983777 eV
  | XC potential correction       :          53.96098584 Ha        1468.35313360 eV
  | Free-atom electrostatic energy:        -263.59230454 Ha       -7172.71155008 eV
  | Hartree energy correction     :          -0.70309863 Ha         -19.13228712 eV
  | Entropy correction            :          -0.00000000 Ha          -0.00000000 eV
  | ---------------------------
  | Total energy                  :        -580.73442478 Ha      -15802.58772510 eV
  | Total energy, T -> 0          :        -580.73442478 Ha      -15802.58772510 eV  <-- do not rely on this value for anything but (periodic) metals
  | Electronic free energy        :        -580.73442478 Ha      -15802.58772510 eV

  Derived energy quantities:
  | Kinetic energy                :         582.44100495 Ha       15849.02613414 eV
  | Electrostatic energy          :       -1121.39145369 Ha      -30514.61402147 eV
  | Energy correction for multipole
  | error in Hartree potential    :           0.01411898 Ha           0.38419707 eV
  | Sum of eigenvalues per atom                           :       -4471.04859186 eV
  | Total energy (T->0) per atom                          :       -7901.29386255 eV  <-- do not rely on this value for anything but (periodic) metals
  | Electronic free energy per atom                       :       -7901.29386255 eV

  Self-consistency convergence accuracy:
  | Change of charge density      :  0.1604E-01
  | Change of sum of eigenvalues  : -0.3801E+01 eV
  | Change of total energy        :  0.4275E-02 eV

  Evaluating new KS density using the density matrix
  Evaluating density matrix
  Time summed over all CPUs for getting density from density matrix: real work        1.206 s, elapsed        1.271 s
  Integration grid: deviation in total charge (<rho> - N_e) =   7.105427E-15
  End self-consistency iteration #     3       :  max(cpu_time)    wall_clock(cpu1)
  | Time for this iteration                    :        0.822 s           0.822 s
  | Charge density update                      :        0.328 s           0.327 s
  | Density mixing & preconditioning           :        0.081 s           0.081 s
  | Hartree multipole update                   :        0.001 s           0.002 s
  | Hartree multipole summation                :        0.163 s           0.163 s
  | Integration                                :        0.204 s           0.204 s
  | Solution of K.-S. eqns.                    :        0.044 s           0.044 s
  | Total energy evaluation                    :        0.000 s           0.001 s

  Partial memory accounting:
  | Current value for overall tracked memory usage:
  |   Minimum:        1.428 MB (on task 3)
  |   Maximum:        1.428 MB (on task 0)
  |   Average:        1.428 MB
  | Peak value for overall tracked memory usage:
  |   Minimum:        5.379 MB (on task 2 after allocating gradient_basis_wave)
  |   Maximum:        5.415 MB (on task 0 after allocating gradient_basis_wave)
  |   Average:        5.400 MB
  | Largest tracked array allocation so far:
  |   Minimum:        1.664 MB (hamiltonian_shell on task 2)
  |   Maximum:        1.685 MB (hamiltonian_shell on task 0)
  |   Average:        1.676 MB
  Note:  These values currently only include a subset of arrays which are explicitly tracked.
  The "true" memory usage will be greater.
------------------------------------------------------------

------------------------------------------------------------
          Begin self-consistency iteration #    4

  Date     :  20210824, Time     :  181403.832
------------------------------------------------------------
  Pulay mixing of updated and previous charge densities.
  Renormalizing the density to the exact electron count on the 3D integration grid.
  | Formal number of electrons (from input files) :      28.0000000000
  | Integrated number of electrons on 3D grid     :      28.0004237463
  | Charge integration error                      :       0.0004237463
  | Normalization factor for density and gradient :       0.9999848664

  Evaluating partitioned Hartree potential by multipole expansion.
  | Original multipole sum: apparent total charge =  -0.372248E-13
  | Sum of charges compensated after spline to logarithmic grids =  -0.893514E-04
  | Analytical far-field extrapolation by fixed multipoles:
  | Hartree multipole sum: apparent total charge =   0.000000E+00
  Summing up the Hartree potential.
  Time summed over all CPUs for potential: real work        0.633 s, elapsed        0.639 s
  | RMS charge density error from multipole expansion :   0.110656E-01
  | Average real-space part of the electrostatic potential :      0.32719548 eV

  Integrating Hamiltonian matrix: batch-based integration.
  Time summed over all CPUs for integration: real work        0.766 s, elapsed        0.818 s

  Updating Kohn-Sham eigenvalues and eigenvectors using ELSI and the (modified) LAPACK eigensolver.
  Starting LAPACK eigensolver
  Finished Cholesky decomposition
  | Time :     0.000 s
  Finished transformation to standard eigenproblem
  | Time :     0.000 s
  Finished solving standard eigenproblem
  | Time :     0.001 s
  Finished back-transformation of eigenvectors
  | Time :     0.000 s

  Obtaining occupation numbers and chemical potential using ELSI.
  | Chemical potential (Fermi level):    -5.18352570 eV
  What follows are estimated values for band gap, HOMO, LUMO, etc.
  | They are estimated on a discrete k-point grid and not necessarily exact.
  | For converged numbers, create a DOS and/or band structure plot on a denser k-grid.

  Highest occupied state (VBM) at     -5.65563911 eV (relative to internal zero)
  | Occupation number:      2.00000000
  | K-point:       1 at    0.000000    0.000000    0.000000 (in units of recip. lattice)

  Lowest unoccupied state (CBM) at    -5.01173789 eV (relative to internal zero)
  | Occupation number:      0.00000000
  | K-point:      30 at    0.000000    0.625000    0.625000 (in units of recip. lattice)

  ESTIMATED overall HOMO-LUMO gap:      0.64390123 eV between HOMO at k-point 1 and LUMO at k-point 30
  | This appears to be an indirect band gap.
  | Smallest direct gap :      2.59522132 eV for k_point 1 at    0.000000    0.000000    0.000000 (in units of recip. lattice)
  The gap value is above 0.2 eV. Unless you are using a very sparse k-point grid,
  this system is most likely an insulator or a semiconductor.

  Total energy components:
  | Sum of eigenvalues            :        -328.68899057 Ha       -8944.08250334 eV
  | XC energy correction          :         -41.77812038 Ha       -1136.84049746 eV
  | XC potential correction       :          53.95331030 Ha        1468.14427156 eV
  | Free-atom electrostatic energy:        -263.59230454 Ha       -7172.71155008 eV
  | Hartree energy correction     :          -0.62824225 Ha         -17.09534152 eV
  | Entropy correction            :          -0.00000000 Ha          -0.00000000 eV
  | ---------------------------
  | Total energy                  :        -580.73434745 Ha      -15802.58562083 eV
  | Total energy, T -> 0          :        -580.73434745 Ha      -15802.58562083 eV  <-- do not rely on this value for anything but (periodic) metals
  | Electronic free energy        :        -580.73434745 Ha      -15802.58562083 eV

  Derived energy quantities:
  | Kinetic energy                :         582.34345046 Ha       15846.37154144 eV
  | Electrostatic energy          :       -1121.29967752 Ha      -30512.11666482 eV
  | Energy correction for multipole
  | error in Hartree potential    :           0.01456237 Ha           0.39626238 eV
  | Sum of eigenvalues per atom                           :       -4472.04125167 eV
  | Total energy (T->0) per atom                          :       -7901.29281042 eV  <-- do not rely on this value for anything but (periodic) metals
  | Electronic free energy per atom                       :       -7901.29281042 eV

  Self-consistency convergence accuracy:
  | Change of charge density      :  0.6772E-02
  | Change of sum of eigenvalues  : -0.1985E+01 eV
  | Change of total energy        :  0.2104E-02 eV

  Evaluating new KS density using the density matrix
  Evaluating density matrix
  Time summed over all CPUs for getting density from density matrix: real work        1.211 s, elapsed        1.281 s
  Integration grid: deviation in total charge (<rho> - N_e) =   7.105427E-15
  End self-consistency iteration #     4       :  max(cpu_time)    wall_clock(cpu1)
  | Time for this iteration                    :        0.826 s           0.827 s
  | Charge density update                      :        0.330 s           0.330 s
  | Density mixing & preconditioning           :        0.079 s           0.080 s
  | Hartree multipole update                   :        0.001 s           0.001 s
  | Hartree multipole summation                :        0.163 s           0.163 s
  | Integration                                :        0.206 s           0.206 s
  | Solution of K.-S. eqns.                    :        0.046 s           0.046 s
  | Total energy evaluation                    :        0.000 s           0.001 s

  Partial memory accounting:
  | Current value for overall tracked memory usage:
  |   Minimum:        1.428 MB (on task 3)
  |   Maximum:        1.428 MB (on task 0)
  |   Average:        1.428 MB
  | Peak value for overall tracked memory usage:
  |   Minimum:        5.379 MB (on task 2 after allocating gradient_basis_wave)
  |   Maximum:        5.416 MB (on task 0 after allocating gradient_basis_wave)
  |   Average:        5.400 MB
  | Largest tracked array allocation so far:
  |   Minimum:        1.664 MB (hamiltonian_shell on task 2)
  |   Maximum:        1.685 MB (hamiltonian_shell on task 0)
  |   Average:        1.676 MB
  Note:  These values currently only include a subset of arrays which are explicitly tracked.
  The "true" memory usage will be greater.
------------------------------------------------------------

------------------------------------------------------------
          Begin self-consistency iteration #    5

  Date     :  20210824, Time     :  181404.659
------------------------------------------------------------
  Pulay mixing of updated and previous charge densities.
  Renormalizing the density to the exact electron count on the 3D integration grid.
  | Formal number of electrons (from input files) :      28.0000000000
  | Integrated number of electrons on 3D grid     :      28.0004484970
  | Charge integration error                      :       0.0004484970
  | Normalization factor for density and gradient :       0.9999839825

  Evaluating partitioned Hartree potential by multipole expansion.
  | Original multipole sum: apparent total charge =  -0.955844E-14
  | Sum of charges compensated after spline to logarithmic grids =  -0.892080E-04
  | Analytical far-field extrapolation by fixed multipoles:
  | Hartree multipole sum: apparent total charge =   0.000000E+00
  Summing up the Hartree potential.
  Time summed over all CPUs for potential: real work        0.636 s, elapsed        0.641 s
  | RMS charge density error from multipole expansion :   0.111957E-01
  | Average real-space part of the electrostatic potential :      0.31037109 eV

  Integrating Hamiltonian matrix: batch-based integration.
  Time summed over all CPUs for integration: real work        0.748 s, elapsed        0.801 s

  Updating Kohn-Sham eigenvalues and eigenvectors using ELSI and the (modified) LAPACK eigensolver.
  Starting LAPACK eigensolver
  Finished Cholesky decomposition
  | Time :     0.000 s
  Finished transformation to standard eigenproblem
  | Time :     0.000 s
  Finished solving standard eigenproblem
  | Time :     0.000 s
  Finished back-transformation of eigenvectors
  | Time :     0.000 s

  Obtaining occupation numbers and chemical potential using ELSI.
  | Chemical potential (Fermi level):    -5.19890797 eV
  What follows are estimated values for band gap, HOMO, LUMO, etc.
  | They are estimated on a discrete k-point grid and not necessarily exact.
  | For converged numbers, create a DOS and/or band structure plot on a denser k-grid.

  Highest occupied state (VBM) at     -5.67184521 eV (relative to internal zero)
  | Occupation number:      2.00000000
  | K-point:       1 at    0.000000    0.000000    0.000000 (in units of recip. lattice)

  Lowest unoccupied state (CBM) at    -5.01764813 eV (relative to internal zero)
  | Occupation number:      0.00000000
  | K-point:      30 at    0.000000    0.625000    0.625000 (in units of recip. lattice)

  ESTIMATED overall HOMO-LUMO gap:      0.65419708 eV between HOMO at k-point 1 and LUMO at k-point 30
  | This appears to be an indirect band gap.
  | Smallest direct gap :      2.60075468 eV for k_point 1 at    0.000000    0.000000    0.000000 (in units of recip. lattice)
  The gap value is above 0.2 eV. Unless you are using a very sparse k-point grid,
  this system is most likely an insulator or a semiconductor.

  Total energy components:
  | Sum of eigenvalues            :        -328.74289238 Ha       -8945.54924623 eV
  | XC energy correction          :         -41.77651893 Ha       -1136.79691969 eV
  | XC potential correction       :          53.95102764 Ha        1468.08215736 eV
  | Free-atom electrostatic energy:        -263.59230454 Ha       -7172.71155008 eV
  | Hartree energy correction     :          -0.57359518 Ha         -15.60831895 eV
  | Entropy correction            :          -0.00000000 Ha          -0.00000000 eV
  | ---------------------------
  | Total energy                  :        -580.73428339 Ha      -15802.58387760 eV
  | Total energy, T -> 0          :        -580.73428339 Ha      -15802.58387760 eV  <-- do not rely on this value for anything but (periodic) metals
  | Electronic free energy        :        -580.73428339 Ha      -15802.58387760 eV

  Derived energy quantities:
  | Kinetic energy                :         582.34543085 Ha       15846.42543064 eV
  | Electrostatic energy          :       -1121.30319531 Ha      -30512.21238854 eV
  | Energy correction for multipole
  | error in Hartree potential    :           0.01465953 Ha           0.39890605 eV
  | Sum of eigenvalues per atom                           :       -4472.77462312 eV
  | Total energy (T->0) per atom                          :       -7901.29193880 eV  <-- do not rely on this value for anything but (periodic) metals
  | Electronic free energy per atom                       :       -7901.29193880 eV

  Self-consistency convergence accuracy:
  | Change of charge density      :  0.3212E-02
  | Change of sum of eigenvalues  : -0.1467E+01 eV
  | Change of total energy        :  0.1743E-02 eV

  Evaluating new KS density using the density matrix
  Evaluating density matrix
  Time summed over all CPUs for getting density from density matrix: real work        1.228 s, elapsed        1.310 s
  Integration grid: deviation in total charge (<rho> - N_e) =   0.000000E+00
  End self-consistency iteration #     5       :  max(cpu_time)    wall_clock(cpu1)
  | Time for this iteration                    :        0.828 s           0.828 s
  | Charge density update                      :        0.337 s           0.337 s
  | Density mixing & preconditioning           :        0.079 s           0.079 s
  | Hartree multipole update                   :        0.001 s           0.001 s
  | Hartree multipole summation                :        0.164 s           0.164 s
  | Integration                                :        0.202 s           0.202 s
  | Solution of K.-S. eqns.                    :        0.044 s           0.044 s
  | Total energy evaluation                    :        0.000 s           0.000 s

  Partial memory accounting:
  | Current value for overall tracked memory usage:
  |   Minimum:        1.428 MB (on task 3)
  |   Maximum:        1.428 MB (on task 0)
  |   Average:        1.428 MB
  | Peak value for overall tracked memory usage:
  |   Minimum:        5.379 MB (on task 2 after allocating gradient_basis_wave)
  |   Maximum:        5.416 MB (on task 0 after allocating gradient_basis_wave)
  |   Average:        5.400 MB
  | Largest tracked array allocation so far:
  |   Minimum:        1.664 MB (hamiltonian_shell on task 2)
  |   Maximum:        1.685 MB (hamiltonian_shell on task 0)
  |   Average:        1.676 MB
  Note:  These values currently only include a subset of arrays which are explicitly tracked.
  The "true" memory usage will be greater.
------------------------------------------------------------

------------------------------------------------------------
          Begin self-consistency iteration #    6

  Date     :  20210824, Time     :  181405.487
------------------------------------------------------------
  Pulay mixing of updated and previous charge densities.
  Renormalizing the density to the exact electron count on the 3D integration grid.
  | Formal number of electrons (from input files) :      28.0000000000
  | Integrated number of electrons on 3D grid     :      27.9999918031
  | Charge integration error                      :      -0.0000081969
  | Normalization factor for density and gradient :       1.0000002927

  Evaluating partitioned Hartree potential by multipole expansion.
  | Original multipole sum: apparent total charge =  -0.287141E-13
  | Sum of charges compensated after spline to logarithmic grids =  -0.891604E-04
  | Analytical far-field extrapolation by fixed multipoles:
  | Hartree multipole sum: apparent total charge =   0.000000E+00
  Summing up the Hartree potential.
  Time summed over all CPUs for potential: real work        0.634 s, elapsed        0.639 s
  | RMS charge density error from multipole expansion :   0.111911E-01
  | Average real-space part of the electrostatic potential :      0.31054615 eV

  Integrating Hamiltonian matrix: batch-based integration.
  Time summed over all CPUs for integration: real work        0.756 s, elapsed        0.823 s

  Updating Kohn-Sham eigenvalues and eigenvectors using ELSI and the (modified) LAPACK eigensolver.
  Starting LAPACK eigensolver
  Finished Cholesky decomposition
  | Time :     0.000 s
  Finished transformation to standard eigenproblem
  | Time :     0.000 s
  Finished solving standard eigenproblem
  | Time :     0.001 s
  Finished back-transformation of eigenvectors
  | Time :     0.000 s

  Obtaining occupation numbers and chemical potential using ELSI.
  | Chemical potential (Fermi level):    -5.19893280 eV
  What follows are estimated values for band gap, HOMO, LUMO, etc.
  | They are estimated on a discrete k-point grid and not necessarily exact.
  | For converged numbers, create a DOS and/or band structure plot on a denser k-grid.

  Highest occupied state (VBM) at     -5.67186367 eV (relative to internal zero)
  | Occupation number:      2.00000000
  | K-point:       1 at    0.000000    0.000000    0.000000 (in units of recip. lattice)

  Lowest unoccupied state (CBM) at    -5.01761462 eV (relative to internal zero)
  | Occupation number:      0.00000000
  | K-point:      30 at    0.000000    0.625000    0.625000 (in units of recip. lattice)

  ESTIMATED overall HOMO-LUMO gap:      0.65424906 eV between HOMO at k-point 1 and LUMO at k-point 30
  | This appears to be an indirect band gap.
  | Smallest direct gap :      2.60077896 eV for k_point 1 at    0.000000    0.000000    0.000000 (in units of recip. lattice)
  The gap value is above 0.2 eV. Unless you are using a very sparse k-point grid,
  this system is most likely an insulator or a semiconductor.

  Total energy components:
  | Sum of eigenvalues            :        -328.74253066 Ha       -8945.53940325 eV
  | XC energy correction          :         -41.77653516 Ha       -1136.79736134 eV
  | XC potential correction       :          53.95105603 Ha        1468.08292991 eV
  | Free-atom electrostatic energy:        -263.59230454 Ha       -7172.71155008 eV
  | Hartree energy correction     :          -0.57396918 Ha         -15.61849605 eV
  | Entropy correction            :          -0.00000000 Ha          -0.00000000 eV
  | ---------------------------
  | Total energy                  :        -580.73428351 Ha      -15802.58388081 eV
  | Total energy, T -> 0          :        -580.73428351 Ha      -15802.58388081 eV  <-- do not rely on this value for anything but (periodic) metals
  | Electronic free energy        :        -580.73428351 Ha      -15802.58388081 eV

  Derived energy quantities:
  | Kinetic energy                :         582.34656439 Ha       15846.45627597 eV
  | Electrostatic energy          :       -1121.30431274 Ha      -30512.24279544 eV
  | Energy correction for multipole
  | error in Hartree potential    :           0.01465970 Ha           0.39891060 eV
  | Sum of eigenvalues per atom                           :       -4472.76970162 eV
  | Total energy (T->0) per atom                          :       -7901.29194041 eV  <-- do not rely on this value for anything but (periodic) metals
  | Electronic free energy per atom                       :       -7901.29194041 eV

  Self-consistency convergence accuracy:
  | Change of charge density      :  0.1423E-03
  | Change of sum of eigenvalues  :  0.9843E-02 eV
  | Change of total energy        : -0.3214E-05 eV

  Evaluating new KS density using the density matrix
  Evaluating density matrix
  Time summed over all CPUs for getting density from density matrix: real work        1.225 s, elapsed        1.304 s
  Integration grid: deviation in total charge (<rho> - N_e) =  -2.131628E-14
  End self-consistency iteration #     6       :  max(cpu_time)    wall_clock(cpu1)
  | Time for this iteration                    :        0.822 s           0.823 s
  | Charge density update                      :        0.335 s           0.336 s
  | Density mixing & preconditioning           :        0.071 s           0.071 s
  | Hartree multipole update                   :        0.001 s           0.001 s
  | Hartree multipole summation                :        0.163 s           0.163 s
  | Integration                                :        0.207 s           0.208 s
  | Solution of K.-S. eqns.                    :        0.044 s           0.044 s
  | Total energy evaluation                    :        0.000 s           0.000 s

  Partial memory accounting:
  | Current value for overall tracked memory usage:
  |   Minimum:        1.428 MB (on task 3)
  |   Maximum:        1.428 MB (on task 0)
  |   Average:        1.428 MB
  | Peak value for overall tracked memory usage:
  |   Minimum:        5.379 MB (on task 2 after allocating gradient_basis_wave)
  |   Maximum:        5.416 MB (on task 0 after allocating gradient_basis_wave)
  |   Average:        5.400 MB
  | Largest tracked array allocation so far:
  |   Minimum:        1.664 MB (hamiltonian_shell on task 2)
  |   Maximum:        1.685 MB (hamiltonian_shell on task 0)
  |   Average:        1.676 MB
  Note:  These values currently only include a subset of arrays which are explicitly tracked.
  The "true" memory usage will be greater.
------------------------------------------------------------

------------------------------------------------------------
          Begin self-consistency iteration #    7

  Date     :  20210824, Time     :  181406.310
------------------------------------------------------------
  Pulay mixing of updated and previous charge densities.
  Renormalizing the density to the exact electron count on the 3D integration grid.
  | Formal number of electrons (from input files) :      28.0000000000
  | Integrated number of electrons on 3D grid     :      27.9999851379
  | Charge integration error                      :      -0.0000148621
  | Normalization factor for density and gradient :       1.0000005308

  Evaluating partitioned Hartree potential by multipole expansion.
  | Original multipole sum: apparent total charge =   0.177259E-13
  | Sum of charges compensated after spline to logarithmic grids =  -0.892002E-04
  | Analytical far-field extrapolation by fixed multipoles:
[...]
  | Hartree energy correction     :          -0.51754376 Ha         -14.08308238 eV
  | Entropy correction            :           0.00000000 Ha           0.00000000 eV
  | ---------------------------
  | Total energy                  :        -580.73463939 Ha      -15802.59356497 eV
  | Total energy, T -> 0          :        -580.73463939 Ha      -15802.59356497 eV  <-- do not rely on this value for anything but (periodic) metals
  | Electronic free energy        :        -580.73463939 Ha      -15802.59356497 eV

  Derived energy quantities:
  | Kinetic energy                :         582.25750187 Ha       15844.03276148 eV
  | Electrostatic energy          :       -1121.23471532 Ha      -30510.34895344 eV
  | Energy correction for multipole
  | error in Hartree potential    :           0.01375235 Ha           0.37422038 eV
  | Sum of eigenvalues per atom                           :       -4472.43756884 eV
  | Total energy (T->0) per atom                          :       -7901.29678249 eV  <-- do not rely on this value for anything but (periodic) metals
  | Electronic free energy per atom                       :       -7901.29678249 eV

  atomic forces [eV/Ang]:
  -----------------------
  atom #    1
   Hellmann-Feynman              :  0.272742E-06 -0.223743E-06 -0.186464E-06
   Ionic forces                  :  0.000000E+00  0.000000E+00  0.000000E+00
   Multipole                     : -0.159331E-08 -0.930566E-08 -0.589407E-08
   Pulay + GGA                   : -0.228538E-06  0.103606E-06  0.978856E-07
   ----------------------------------------------------------------
   Total forces(   1)            :  0.426101E-07 -0.129443E-06 -0.944729E-07
  atom #    2
   Hellmann-Feynman              : -0.272861E-06  0.217928E-06  0.183215E-06
   Ionic forces                  :  0.000000E+00  0.000000E+00  0.000000E+00
   Multipole                     :  0.159418E-08  0.930493E-08  0.589288E-08
   Pulay + GGA                   :  0.240587E-06 -0.922618E-07 -0.965410E-07
   ----------------------------------------------------------------
   Total forces(   2)            : -0.306797E-07  0.134971E-06  0.925665E-07


  Analytical stress tensor components [eV]         xx                  yy                  zz                  xy                  xz                  yz
  -----------------------------------------------------------------------------------------------------------------------------------------------------------
    Nuclear Hellmann-Feynman      :    -0.1625214068E+02   -0.1625234929E+02   -0.1625234929E+02   -0.1565289047E-06   -0.2174573107E-06    0.6362940721E-07
    Multipole Hellmann-Feynman    :    -0.3714394410E+02   -0.3714395324E+02   -0.3714395325E+02   -0.4671141598E-06   -0.6624082451E-06    0.1997628529E-06
    On-site Multipole corrections :    -0.2830184829E+00   -0.2830184832E+00   -0.2830184832E+00    0.8497667272E-10    0.1212295194E-09   -0.1711134365E-10
    Strain deriv. of the orbitals :     0.5365431604E+02    0.5365453394E+02    0.5365453395E+02    0.6146441890E-06    0.8485064514E-06   -0.3475149882E-06
  -----------------------------------------------------------------------------------------------------------------------------------------------------------
  Sum of all contributions        :    -0.2478723148E-01   -0.2478707327E-01   -0.2478707113E-01   -0.8913898765E-08   -0.3123787490E-07   -0.8413983948E-07

  +-------------------------------------------------------------------+
  |              Analytical stress tensor - Symmetrized               |
  |                  Cartesian components [eV/A**3]                   |
  +-------------------------------------------------------------------+
  |                x                y                z                |
  |                                                                   |
  |  x        -0.00060094      -0.00000000      -0.00000000           |
  |  y        -0.00000000      -0.00060094      -0.00000000           |
  |  z        -0.00000000      -0.00000000      -0.00060094           |
  |                                                                   |
  |  Pressure:       0.00060094   [eV/A**3]                           |
  |                                                                   |
  +-------------------------------------------------------------------+


  Self-consistency convergence accuracy:
  | Change of charge density      :  0.1694E-08
  | Change of sum of eigenvalues  : -0.6077E-06 eV
  | Change of total energy        :  0.3248E-09 eV
  | Change of forces              :  0.1812E-09 eV/A

  Writing Kohn-Sham eigenvalues.
  K-point:       1 at    0.000000    0.000000    0.000000 (in units of recip. lattice)

  State    Occupation    Eigenvalue [Ha]    Eigenvalue [eV]
      1       2.00000         -65.762120        -1789.47833
      2       2.00000         -65.762120        -1789.47833
      3       2.00000          -5.121725         -139.36922
      4       2.00000          -5.121480         -139.36256
      5       2.00000          -3.505539          -95.39056
      6       2.00000          -3.505539          -95.39056
      7       2.00000          -3.505539          -95.39056
      8       2.00000          -3.504990          -95.37562
      9       2.00000          -3.504990          -95.37562
     10       2.00000          -3.504990          -95.37562
     11       2.00000          -0.639014          -17.38844
     12       2.00000          -0.206927           -5.63078
     13       2.00000          -0.206927           -5.63078
     14       2.00000          -0.206927           -5.63078
     15       0.00000          -0.112002           -3.04772
     16       0.00000          -0.112001           -3.04772
     17       0.00000          -0.112001           -3.04772
     18       0.00000          -0.091114           -2.47933
     19       0.00000           0.082882            2.25533
     20       0.00000           0.082882            2.25533

  What follows are estimated values for band gap, HOMO, LUMO, etc.
  | They are estimated on a discrete k-point grid and not necessarily exact.
  | For converged numbers, create a DOS and/or band structure plot on a denser k-grid.

  Highest occupied state (VBM) at     -5.63078349 eV (relative to internal zero)
  | Occupation number:      2.00000000
  | K-point:       1 at    0.000000    0.000000    0.000000 (in units of recip. lattice)

  Lowest unoccupied state (CBM) at    -4.92964751 eV (relative to internal zero)
  | Occupation number:      0.00000000
  | K-point:     133 at    0.375000    0.000000    0.375000 (in units of recip. lattice)

  ESTIMATED overall HOMO-LUMO gap:      0.70113599 eV between HOMO at k-point 1 and LUMO at k-point 133
  | This appears to be an indirect band gap.
  | Smallest direct gap :      2.58306758 eV for k_point 1 at    0.000000    0.000000    0.000000 (in units of recip. lattice)
  The gap value is above 0.2 eV. Unless you are using a very sparse k-point grid,
  this system is most likely an insulator or a semiconductor.

  Self-consistency cycle converged.

  End self-consistency iteration #    10       :  max(cpu_time)    wall_clock(cpu1)
  | Time for this iteration                    :        0.959 s           0.960 s
  | Charge density & force component update    :        0.000 s           0.000 s
  | Density mixing                             :        0.003 s           0.003 s
  | Hartree multipole update                   :        0.001 s           0.002 s
  | Hartree multipole summation                :        0.712 s           0.712 s
  | Integration                                :        0.196 s           0.196 s
  | Solution of K.-S. eqns.                    :        0.045 s           0.046 s
  | Total energy evaluation                    :        0.001 s           0.001 s

  Partial memory accounting:
  | Current value for overall tracked memory usage:
  |   Minimum:        2.168 MB (on task 3)
  |   Maximum:        2.168 MB (on task 0)
  |   Average:        2.168 MB
  | Peak value for overall tracked memory usage:
  |   Minimum:       11.178 MB (on task 1 after allocating d_wave)
  |   Maximum:       11.623 MB (on task 2 after allocating d_wave)
  |   Average:       11.482 MB
  | Largest tracked array allocation so far:
  |   Minimum:        2.302 MB (hessian_basis_wave on task 0)
  |   Maximum:        2.335 MB (hessian_basis_wave on task 2)
  |   Average:        2.319 MB
  Note:  These values currently only include a subset of arrays which are explicitly tracked.
  The "true" memory usage will be greater.
------------------------------------------------------------
  Removing unitary transformations (pure translations, rotations) from forces on atoms.
  Atomic forces before filtering:
  | Net force on center of mass :   0.119304E-07  0.552859E-08 -0.190634E-08 eV/A
  Atomic forces after filtering:
  | Net force on center of mass :   0.000000E+00  0.000000E+00  0.000000E+00 eV/A

  Energy and forces in a compact form:
  | Total energy uncorrected      :         -0.158025935649747E+05 eV
  | Total energy corrected        :         -0.158025935649747E+05 eV  <-- do not rely on this value for anything but (periodic) metals
  | Electronic free energy        :         -0.158025935649747E+05 eV
  Total atomic forces (unitary forces cleaned) [eV/Ang]:
  |    1          0.366449052201442E-07         -0.132206986955551E-06         -0.935196951994032E-07
  |    2         -0.366449052201442E-07          0.132206986955551E-06          0.935196951994032E-07

  ------------------------------------ 
  Start decomposition of the XC Energy 
  ------------------------------------ 
  X and C from original XC functional choice 
  Hartree-Fock Energy :          0.000000000 Ha              0.000000000 eV
  X Energy            :        -40.665188941 Ha          -1106.556092027 eV
  C Energy            :         -1.092237000 Ha            -29.721280985 eV
  Total XC Energy     :        -41.757425941 Ha          -1136.277373013 eV
  ------------------------------------ 
  LDA X and C from self-consistent density 
  X Energy LDA        :        -37.610825230 Ha          -1023.442626692 eV
  C Energy LDA        :         -2.144904837 Ha            -58.365830246 eV
  ------------------------------------ 
  End decomposition of the XC Energy 
  ------------------------------------ 

------------------------------------------------------------
  Relaxation / MD: End force evaluation.       :  max(cpu_time)    wall_clock(cpu1)
  | Time for this force evaluation             :       19.623 s          19.625 s

------------------------------------------------------------
  Geometry optimization: Attempting to predict improved coordinates.

  +-------------------------------------------------------------------+
  | Generalized derivatives on lattice vectors [eV/A]                 |
  +-------------------------------------------------------------------+
  |lattice_vector       0.00451935      -0.00451934      -0.00451933  |
  |lattice_vector      -0.00451936       0.00451931      -0.00451932  |
  |lattice_vector      -0.00451935      -0.00451931       0.00451930  |
  +-------------------------------------------------------------------+
  | Forces on lattice vectors cleaned from atomic contributions [eV/A]|
  +-------------------------------------------------------------------+
  |lattice_vector      -0.00451935       0.00451934       0.00451933  |
  |lattice_vector       0.00451936      -0.00451931       0.00451932  |
  |lattice_vector       0.00451935       0.00451931      -0.00451930  |
  +-------------------------------------------------------------------+
  Removing unitary transformations (pure translations, rotations) from forces on atoms.
  Atomic forces before filtering:
  | Net force on center of mass :   0.000000E+00  0.000000E+00  0.000000E+00 eV/A
  Atomic forces after filtering:
  | Net force on center of mass :   0.000000E+00  0.000000E+00  0.000000E+00 eV/A
  Net remaining forces (excluding translations, rotations) in present geometry:
  || Forces on atoms   || =   0.132207E-06 eV/A.
  || Forces on lattice || =   0.451936E-02 eV/A^3.
  Maximum force component is  0.451936E-02 eV/A.
  Present geometry is converged.

------------------------------------------------------------
  Final atomic structure:
                         x [A]             y [A]             z [A]
  lattice_vector        -0.00000004        2.74234227        2.74234227
  lattice_vector         2.74234232        0.00000002        2.74234230
  lattice_vector         2.74234232        2.74234230        0.00000002

            atom        -0.00000000        0.00000001        0.00000000  Si
            atom         1.37117115        1.37117114        1.37117114  Si

  Fractional coordinates:
                         L1                L2                L3
       atom_frac         0.00000000       -0.00000000       -0.00000000  Si
       atom_frac         0.25000000        0.25000000        0.25000000  Si
------------------------------------------------------------

------------------------------------------------------------------------------
  Final output of selected total energy values:

  The following output summarizes some interesting total energy values
  at the end of a run (AFTER all relaxation, molecular dynamics, etc.).

  | Total energy of the DFT / Hartree-Fock s.c.f. calculation      :         -15802.593564975 eV
  | Final zero-broadening corrected energy (caution - metals only) :         -15802.593564975 eV
  | For reference only, the value of 1 Hartree used in FHI-aims is :             27.211384500 eV
  | For reference only, the overall average (free atom contribution
  | + realspace contribution) of the electrostatic potential after
  | s.c.f. convergence is                                          :            -12.456323442 eV

  Before relying on these values, please be sure to understand exactly which
  total energy value is referred to by a given number. Different objects may
  all carry the same name 'total energy'. Definitions:

  Total energy of the DFT / Hartree-Fock s.c.f. calculation:
  | Note that this energy does not include ANY quantities calculated after the
  | s.c.f. cycle, in particular not ANY RPA, MP2, etc. many-body perturbation terms.

  Final zero-broadening corrected energy:
  | For metallic systems only, a broadening of the occupation numbers at the Fermi
  | level can be extrapolated back to zero broadening by an electron-gas inspired
  | formula. For all systems that are not real metals, this value can be
  | meaningless and should be avoided.

------------------------------------------------------------------------------
  Methods described in the following list of references were used in this FHI-aims run.
  If you publish the results, please make sure to cite these reference if they apply.
  FHI-aims is an academic code, and for our developers (often, Ph.D. students
  and postdocs), scientific credit in the community is essential.
  Thank you for helping us!

  For any use of FHI-aims, please cite:

    Volker Blum, Ralf Gehrke, Felix Hanke, Paula Havu, Ville Havu,
    Xinguo Ren, Karsten Reuter, and Matthias Scheffler
    'Ab initio molecular simulations with numeric atom-centered orbitals'
    Computer Physics Communications 180, 2175-2196 (2009)
    http://dx.doi.org/10.1016/j.cpc.2009.06.022


  For the analytical stress tensor used in your run, please cite:

    Franz Knuth, Christian Carbogno, Viktor Atalla, Volker Blum, Matthias Scheffler
    'All-electron formalism for total energy strain derivatives and
    stress tensor components for numeric atom-centered orbitals'
    Computer Physics Communications 190, 33-50 (2015).
    http://dx.doi.org/10.1016/j.cpc.2015.01.003


  The provided symmetry information was generated with SPGlib:

    Atsushi Togo, Yusuke Seto, Dimitar Pashov
    SPGlib 1.7.3 obtained from http://spglib.sourceforge.net
    Copyright (C) 2008 Atsushi Togo


  The ELSI infrastructure was used in your run to solve the Kohn-Sham electronic structure.
  Please check out http://elsi-interchange.org to learn more.
  If scalability is important for your project, please acknowledge ELSI by citing:

    V. W-z. Yu, F. Corsetti, A. Garcia, W. P. Huhn, M. Jacquelin, W. Jia,
    B. Lange, L. Lin, J. Lu, W. Mi, A. Seifitokaldani, A. Vazquez-Mayagoitia,
    C. Yang, H. Yang, and V. Blum
    'ELSI: A unified software interface for Kohn-Sham electronic structure solvers'
    Computer Physics Communications 222, 267-285 (2018).
    http://dx.doi.org/10.1016/j.cpc.2017.09.007


  For the real-space grid partitioning and parallelization used in this calculation, please cite:

    Ville Havu, Volker Blum, Paula Havu, and Matthias Scheffler,
    'Efficient O(N) integration for all-electron electronic structure calculation'
    'using numerically tabulated basis functions'
    Journal of Computational Physics 228, 8367-8379 (2009).
    http://dx.doi.org/10.1016/j.jcp.2009.08.008

  Of course, there are many other important community references, e.g., those cited in the
  above references. Our list is limited to references that describe implementations in the
  FHI-aims code. The reason is purely practical (length of this list) - please credit others as well.

------------------------------------------------------------
          Leaving FHI-aims.
          Date     :  20210824, Time     :  181501.831

          Computational steps:
          | Number of self-consistency cycles          :           32
          | Number of SCF (re)initializations          :            3
          | Number of relaxation steps                 :            2

          Detailed time accounting                     :  max(cpu_time)    wall_clock(cpu1)
          | Total time                                 :       61.685 s          61.689 s
          | Preparation time                           :        0.194 s           0.194 s
          | Boundary condition initalization           :        0.163 s           0.156 s
          | Grid partitioning                          :        0.059 s           0.060 s
          | Preloading free-atom quantities on grid    :        0.210 s           0.210 s
          | Free-atom superposition energy             :        0.033 s           0.033 s
          | Total time for integrations                :        7.001 s           6.996 s
          | Total time for solution of K.-S. equations :        1.489 s           1.490 s
          | Total time for EV reorthonormalization     :        0.014 s           0.015 s
          | Total time for density & force components  :       41.937 s          41.936 s
          | Total time for mixing & preconditioning    :        1.802 s           1.806 s
          | Total time for Hartree multipole update    :        0.043 s           0.047 s
          | Total time for Hartree multipole sum       :        8.487 s           8.489 s
          | Total time for total energy evaluation     :        0.013 s           0.012 s
          | Total time for scaled ZORA corrections     :        0.000 s           0.000 s

          Partial memory accounting:
          | Residual value for overall tracked memory usage across tasks:     0.000000 MB (should be 0.000000 MB)
          | Peak values for overall tracked memory usage:
          |   Minimum:       11.178 MB (on task 1 after allocating d_wave)
          |   Maximum:       11.623 MB (on task 2 after allocating d_wave)
          |   Average:       11.482 MB
          | Largest tracked array allocation:
          |   Minimum:        2.302 MB (hessian_basis_wave on task 0)
          |   Maximum:        2.335 MB (hessian_basis_wave on task 2)
          |   Average:        2.319 MB
          Note:  These values currently only include a subset of arrays which are explicitly tracked.
          The "true" memory usage will be greater.

          Have a nice day.
------------------------------------------------------------
