------------------------------------------------------------
          Invoking FHI-aims ...

          When using FHI-aims, please cite the following reference:

            Volker Blum, Ralf Gehrke, Felix Hanke, Paula Havu,
            Ville Havu, Xinguo Ren, Karsten Reuter, and Matthias Scheffler,
            'Ab Initio Molecular Simulations with Numeric Atom-Centered Orbitals',
            Computer Physics Communications 180, 2175-2196 (2009)

          In addition, many other developments in FHI-aims are likely important for
          your particular application. A partial list of references is given at the end of
          this file. Thank you for giving credit to the authors of these developments.

          For any questions about FHI-aims, please visit our slack channel at

            https://fhi-aims.slack.com

          and our main development and support site at

            https://aims-git.rz-berlin.mpg.de .

          The latter site, in particular, has a wiki to collect information, as well
          as an issue tracker to log discussions, suggest improvements, and report issues
          or bugs. https://aims-git.rz-berlin.mpg.de is also the main development site
          of the project and all new and updated code versions can be obtained there.
          Please send an email to aims-coordinators@fhi-berlin.mpg.de and we will add
          you to these sites. They are for you and everyone is welcome there.

------------------------------------------------------------



  Date     :  20210824, Time     :  163736.561
  Time zero on CPU 1             :   0.173810000000000E-01  s.
  Internal wall clock time zero  :           399055056.561  s.

  FHI-aims created a unique identifier for this run for later identification
  aims_uuid : F593F576-1C5A-4D52-A066-E8E486D0E0C6

  Build configuration of the current instance of FHI-aims
  -------------------------------------------------------
  FHI-aims version      : 210226
  Commit number         : GITDIR-NOTFOUND
  CMake host system     : Linux-3.10.0-514.6.1.el7.x86_64
  CMake version         : 3.8.0-rc1
  Fortran compiler      : /apps/intel2018/compilers_and_libraries/linux/mpi/intel64/bin/mpiifort (Intel) version 18.0.5.20180823
  Fortran compiler flags: -fc=ifort -O3 -ip -fp-model precise -xCORE-AVX2 -qopt-zmm-usage=high
  C compiler            : /apps/intel2018/compilers_and_libraries_2018.5.274/linux/mpi/intel64/bin/mpiicc (Intel) version 18.0.5.20180823
  C compiler flags      : -O3 -ip -fp-model precise -std=gnu99 -xCORE-AVX2 -qopt-zmm-usage=high
  ELPA2 kernel          : AVX2
  Using MPI
  Using ScaLAPACK
  Using LibXC
  Using i-PI
  Using RLSY
  Linking against: /apps/intel2018/compilers_and_libraries_2018.5.274/linux/mkl/lib/intel64_lin/libmkl_intel_lp64.so
                   /apps/intel2018/compilers_and_libraries_2018.5.274/linux/mkl/lib/intel64_lin/libmkl_sequential.so
                   /apps/intel2018/compilers_and_libraries_2018.5.274/linux/mkl/lib/intel64_lin/libmkl_core.so
                   /apps/intel2018/compilers_and_libraries_2018.5.274/linux/mkl/lib/intel64_lin/libmkl_blacs_intelmpi_lp64.so
                   /apps/intel2018/compilers_and_libraries_2018.5.274/linux/mkl/lib/intel64_lin/libmkl_scalapack_lp64.so

  Using        4 parallel tasks.
  Task        0 on host mercury reporting.
  Task        1 on host mercury reporting.
  Task        2 on host mercury reporting.
  Task        3 on host mercury reporting.

  Performing system and environment tests:
  | Environment variable OMP_NUM_THREADS correctly set to 1.
  | Checking for ScaLAPACK...
  | Testing pdtran()...
  | All pdtran() tests passed.

  Obtaining array dimensions for all initial allocations:
  
  -----------------------------------------------------------------------
  Parsing control.in (first pass over file, find array dimensions only).
  The contents of control.in will be repeated verbatim below
  unless switched off by setting 'verbatim_writeout .false.' .
  in the first line of control.in .
  -----------------------------------------------------------------------
  
  ################################
  # PARAMETRES OF THE SIMULATION #
  ################################
  xc             pbe
  relativistic   atomic_zora scalar
  relax_geometry bfgs        5e-3
  spin           collinear
  
  ################################################################################
  #
  #  FHI-aims code project
  #  Volker Blum, 2017
  #
  #  Suggested "intermediate" defaults for O atom (to be pasted into control.in file)
  #
  ################################################################################
    species        O
  #     global species definitions
      nucleus             8
      mass                15.9994
  #
      l_hartree           6
  #
      cut_pot             4.0  2.0  1.0
      basis_dep_cutoff    1e-4
  #
      radial_base         36 7.0
      radial_multiplier   2
       angular_grids specified
        division   0.1817   50
        division   0.3417  110
        division   0.4949  194
        division   0.6251  302
        division   0.8014  434
  #      division   0.8507  590
  #      division   0.8762  770
  #      division   0.9023  974
  #      division   1.2339 1202
  #      outer_grid 974
        outer_grid  434
  ################################################################################
  #
  #  Definition of "minimal" basis
  #
  ################################################################################
  #     valence basis states
      valence      2  s   2.
      valence      2  p   4.
  #     ion occupancy
      ion_occ      2  s   1.
      ion_occ      2  p   3.
  ################################################################################
  #
  #  Suggested additional basis functions. For production calculations,
  #  uncomment them one after another (the most important basis functions are
  #  listed first).
  #
  #  Constructed for dimers: 1.0 A, 1.208 A, 1.5 A, 2.0 A, 3.0 A
  #
  ################################################################################
  #  "First tier" - improvements: -699.05 meV to -159.38 meV
       hydro 2 p 1.8
       hydro 3 d 7.6
       hydro 3 s 6.4
  #  "Second tier" - improvements: -49.91 meV to -5.39 meV
       hydro 4 f 11.6
  #     hydro 3 p 6.2
  #     hydro 3 d 5.6
    for_aux    hydro 5 g 17.6
  #     hydro 1 s 0.75
  #  "Third tier" - improvements: -2.83 meV to -0.50 meV
  #     ionic 2 p auto
  #     hydro 4 f 10.8
  #     hydro 4 d 4.7
  #     hydro 2 s 6.8
  #  "Fourth tier" - improvements: -0.40 meV to -0.12 meV
  #     hydro 3 p 5
  #     hydro 3 s 3.3
  #     hydro 5 g 15.6
  #     hydro 4 f 17.6
  #     hydro 4 d 14
  # Further basis functions - -0.08 meV and below
  #     hydro 3 s 2.1
  #     hydro 4 d 11.6
  #     hydro 3 p 16
  #     hydro 2 s 17.2
  
  -----------------------------------------------------------------------
  Completed first pass over input file control.in .
  -----------------------------------------------------------------------
  
  
  -----------------------------------------------------------------------
  Parsing geometry.in (first pass over file, find array dimensions only).
  The contents of geometry.in will be repeated verbatim below
  unless switched off by setting 'verbatim_writeout .false.' .
  in the first line of geometry.in .
  -----------------------------------------------------------------------
  
  atom    0.0     0.0     0.0   O
      initial_moment   1.0
      initial_charge   0.0
  atom    0.0     0.0     1.9   O
      initial_moment   1.0
      initial_charge   0.0
  
  
  -----------------------------------------------------------------------
  Completed first pass over input file geometry.in .
  -----------------------------------------------------------------------
  

  Basic array size parameters:
  | Number of species                 :        1
  | Number of atoms                   :        2
  | Max. basis fn. angular momentum   :        4
  | Max. atomic/ionic basis occupied n:        2
  | Max. number of basis fn. types    :        2
  | Max. radial fns per species/type  :        5
  | Max. logarithmic grid size        :     1301
  | Max. radial integration grid size :       73
  | Max. angular integration grid size:      434
  | Max. angular grid division number :        8
  | Radial grid for Hartree potential :     1301
  | Number of spin channels           :        2

------------------------------------------------------------
          Reading file control.in.
------------------------------------------------------------
  XC: Using PBE gradient-corrected functionals.
  Scalar relativistic treatment of kinetic energy: on-site free-atom approximation to ZORA.
  Geometry relaxation: Modified BFGS - TRM (trust radius method) for lattice optimization.
  Convergence accuracy for geometry relaxation: Maximum force <   0.500000E-02 eV/A.
  Spin treatment: Spin density functional theory - collinear spins.
 
  Reading configuration options for species O                   .
  | Found nuclear charge :   8.0000
  | Found atomic mass :    15.9994000000000      amu
  | Found l_max for Hartree potential  :   6
  | Found cutoff potl. onset [A], width [A], scale factor :    4.00000    2.00000    1.00000
  | Threshold for basis-dependent cutoff potential is   0.100000E-03
  | Found data for basic radial integration grid :    36 points, outermost radius =    7.000 A
  | Found multiplier for basic radial grid :   2
  | Found angular grid specification: user-specified.
  | Specified grid contains     6 separate shells.
  | Check grid settings after all constraints further below.
  | Found free-atom valence shell :  2 s   2.000
  | Found free-atom valence shell :  2 p   4.000
  | No ionic wave fns used. Skipping ion_occ.
  | No ionic wave fns used. Skipping ion_occ.
  | Found hydrogenic basis function :  2 p   1.800
  | Found hydrogenic basis function :  3 d   7.600
  | Found hydrogenic basis function :  3 s   6.400
  | Found hydrogenic basis function :  4 f  11.600
  | Found hydrogenic extended basis function :  5 g  17.600
  Species O                   : Missing cutoff potential type.
  Defaulting to exp(1/x)/(1-x)^2 type cutoff potential.
  Species O : No 'logarithmic' tag. Using default grid for free atom:
  | Default logarithmic grid data [bohr] : 0.1000E-03 0.1000E+03 0.1012E+01
  Species O : On-site basis accuracy parameter (for Gram-Schmidt orthonormalisation) not specified.
  Using default value basis_acc =  0.1000000E-03.
  Species O                   : Using default innermost maximum threshold i_radial=  2 for radial functions.
  Species O                   : Default cutoff onset for free atom density etc. : 0.40000000E+01 AA.
  Species O                   : Basic radial grid will be enhanced according to radial_multiplier =   2, to contain    73 grid points.
 
  Finished reading input file 'control.in'.
 
------------------------------------------------------------


------------------------------------------------------------
          Reading geometry description geometry.in.
------------------------------------------------------------
  | The smallest distance between any two atoms is         1.90000000 AA.
  | The first atom of this pair is atom number                      1 .
  | The second atom of this pair is atom number                     2 .
  Input structure read successfully.
  The structure contains        2 atoms,  and a total of         16.000 electrons.

  Input geometry:
  | No unit cell requested.
  | Atomic structure:
  |       Atom                x [A]            y [A]            z [A]
  |    1: Species O             0.00000000        0.00000000        0.00000000
  |    2: Species O             0.00000000        0.00000000        1.90000000

  Initial moments and charges:
  |  Atom   Moment         Charge        Species
  |     1   0.100000E+01   0.000000E+00   O
  |     2   0.100000E+01   0.000000E+00   O

 
  Finished reading input file 'control.in'.
 

------------------------------------------------------------
          Reading geometry description geometry.in.
------------------------------------------------------------
 
  Consistency checks for stacksize environment parameter are next.
 
  | Maximum stacksize for task 0: unlimited
  | Maximum stacksize for task 1: unlimited
  | Maximum stacksize for task 2: unlimited
  | Maximum stacksize for task 3: unlimited
  | Current stacksize for task 0: unlimited
  | Current stacksize for task 1: unlimited
  | Current stacksize for task 2: unlimited
  | Current stacksize for task 3: unlimited
 
  Consistency checks for the contents of control.in are next.
 
  MPI_IN_PLACE appears to work with this MPI implementation.
  | Keeping use_mpi_in_place .true. (see manual).
  Target number of points in a grid batch is not set. Defaulting to  100
  Method for grid partitioning is not set. Defaulting to parallel hash+maxmin partitioning.
  Batch size limit is not set. Defaulting to    200
  By default, will store active basis functions for each batch.
  If in need of memory, prune_basis_once .false. can be used to disable this option.
  communication_type for Hartree potential was not specified.
  Defaulting to calc_hartree .
  Defaulting to Pulay charge density mixer.
  Pulay mixer: Number of relevant iterations not set.
  Defaulting to    8 iterations.
  Pulay mixer: Number of initial linear mixing iterations not set.
  Defaulting to    0 iterations.
  Work space size for distributed Hartree potential not set.
  Defaulting to   0.200000E+03 MB.
  Mixing parameter for charge density mixing has not been set.
  Using default: charge_mix_param =     0.0500.
  The mixing parameter will be adjusted in iteration number     2 of the first full s.c.f. cycle only.
  Mixing parameter for spin density mixing has not been set.
  Using charge_mix_param as default:     0.0500.
  Algorithm-dependent basis array size parameters:
  | n_max_pulay                         :        8
  Maximum number of self-consistency iterations not provided.
  Presetting  1000 iterations.
  Presetting      1001 iterations before the initial mixing cycle
  is restarted anyway using the sc_init_iter criterion / keyword.
  Presetting a factor      1.000 between actual scf density residual
  and density convergence criterion sc_accuracy_rho below which sc_init_iter
  takes no effect.
 * No s.c.f. convergence criteria (sc_accuracy_*) were provided in control.in.
 * The run will proceed with a reasonable default guess, but please check whether.
 * the s.c.f. cycles seem to take too much or too little time.
  No maximum number of relaxation steps, defaulting to     1000
  Default initial Hessian is Lindh matrix (thres = 15.00) plus  0.200000E+01 eV/A^2 times unity.
  No maximum energy tolerance for TRM/BFGS moves, defaulting to   0.100000E-02
  Maximum energy tolerance by which TRM/BFGS trajectory may increase over multiple steps:   0.300000E-02
  No harmonic length scale. Defaulting to   0.250000E-01 A.
  No trust radius initializer. Defaulting to   0.200000E+00 A.
 * Notice: The s.c.f. convergence criterion sc_accuracy_rho was not provided.
 * We used to stop in this case, and ask the user to provide reasonable
 * scf convergence criteria. However, this led some users to employ criteria
 * that led to extremely long run times, e.g., for simple relaxation.
 * We now preset a default value for sc_accuracy_rho if it is not set.
 * You may still wish to check if this setting is too tight or too loose for your needs.
 * Based on n_atoms, FHI-aims chose sc_accuracy_rho =  0.100000E-05 .
  Force calculation: scf convergence accuracy of forces not set.
  Defaulting to 'sc_accuracy_forces not_checked'.
  Handling of forces: Unphysical translation and rotation will be removed from forces.
  No accuracy limit for integral partition fn. given. Defaulting to  0.1000E-14.
  No threshold value for u(r) in integrations given. Defaulting to  0.1000E-05.
  No occupation type (smearing scheme) given. Defaulting to Gaussian broadening, width =  0.1000E-01 eV.
  The width will be adjusted in iteration number     2 of the first full s.c.f. cycle only.
  S.C.F. convergence parameters will be adjusted in iteration number     2 of the first full s.c.f. cycle only.
  No accuracy for occupation numbers given. Defaulting to  0.1000E-12.
  No threshold value for occupation numbers given. Defaulting to  0.0000E+00.
  No accuracy for fermi level given. Defaulting to  0.1000E-19.
  Maximum # of iterations to find E_F not set. Defaulting to  200.
  Preferred method for the eigenvalue solver ('KS_method') not specified in 'control.in'.
  Calling BLACS routine to test compilation state
  Since ScaLAPACK support is enabled, defaulting to ELPA (via ELSI).
  Will not use alltoall communication since running on < 1024 CPUs.
  Threshold for basis singularities not set.
  Default threshold for basis singularities:  0.1000E-04
  partition_type (choice of integration weights) for integrals was not specified.
  | Using a version of the partition function of Stratmann and coworkers ('stratmann_sparse').
  | At each grid point, the set of atoms used to build the partition table is smoothly restricted to
  | only those atoms whose free-atom density would be non-zero at that grid point.
  Partitioning for Hartree potential was not defined. Using partition_type for integrals.
  | Adjusted default value of keyword multip_moments_threshold to:       0.10000000E-11
  | This value may affect high angular momentum components of the Hartree potential in periodic systems.
  No q(lm)/r^(l+1) cutoff set for long-range Hartree potential.
  | Using default value of  0.100000E-09 .
  | Verify using the multipole_threshold keyword.
  Defaulting to new monopole extrapolation.
  Density update method: automatic selection selected.
  Geometry relaxation: A file "geometry.in.next_step" is written out by default after each step.
  | This file contains the geometry of the current relaxation step as well as
  | the current Hessian matrix needed to restart the relaxation algorithm.
  | If you do not want part or all of this information, use the keywords
  | "write_restart_geometry" or "hessian_to_restart_geometry" to switch the output off.
  Charge integration errors on the 3D integration grid will be compensated
  by explicit normalization and distribution of residual charges.
  Use the "compensate_multipole_errors" flag to change this behaviour.
  Set 'collect_eigenvectors' to be '.true.' for use_density_matrix .false.
 
  Consistency checks for the contents of geometry.in are next.
 
  Number of empty states per atom not set in control.in - providing a guess from actual geometry.
  | Total number of empty states used during s.c.f. cycle:        6
  If you use a very high smearing, use empty_states (per atom!) in control.in to increase this value.

  Structure-dependent array size parameters: 
  | Number of distinct atom types in initial rho :        1
  | Maximum number of distinct radial functions  :        8
  | Maximum number of basis functions            :       60
  | Number of Kohn-Sham states (occupied + empty):       14
------------------------------------------------------------

------------------------------------------------------------
          Preparing all fixed parts of the calculation.
------------------------------------------------------------
  Determining machine precision:
    2.225073858507201E-308
  Setting up grids for atomic and cluster calculations.

  Creating wave function, potential, and density for free atoms.

  Species: O

  List of occupied orbitals and eigenvalues:
    n    l              occ      energy [Ha]    energy [eV]
    1    0           2.0000       -18.927378      -515.0401
    2    0           2.0000        -0.880539       -23.9607
    2    1           4.0000        -0.331811        -9.0290

  Spin-polarized or charged system:
  Charge density initialized according to selected moments and charges.

  Creating spin-polarized density from free atoms.

  Species: O
  Charge:   0.000000
  Moment:   1.000000

  List of occupied orbitals and eigenvalues:
    n    l      energy [Ha]    energy [eV]    occupation
  Spin-up
    1    0       -18.934229      -515.2266     1.00000000
    2    0        -0.906872       -24.6772     1.00000000
    2    1        -0.356742        -9.7074     2.50000000
  Spin-down
    1    0       -18.911454      -514.6069     1.00000000
    2    0        -0.847558       -23.0632     1.00000000
    2    1        -0.301004        -8.1907     1.50000000


  Adding cutoff potential to free-atom effective potential.
  Creating fixed part of basis set: Ionic, confined, hydrogenic.
 
  O                    hydrogenic:
 
  List of hydrogenic basis orbitals: 
    n    l      effective z      eigenvalue [eV]  inner max. [A]     outer max. [A]     outer radius [A]   
    2    1         1.800000       -11.0118           1.178562           1.178562           5.432602
    3    2         7.600000       -87.3182           0.624125           0.624125           3.541477
    3    0         6.400000       -61.9209           0.061167           1.081902           4.306578
    4    3        11.600000      -114.4238           0.731631           0.731631           3.585037
 
  List of extra hydrogenic orbitals for auxiliary basis: 
    n    l      effective z      eigenvalue [eV]  inner max. [A]     outer max. [A]     outer radius [A]   
    5    4        17.600000      -168.5799           0.749740           0.749740           3.372465
 
  Creating atomic-like basis functions for current effective potential.

  Species O                   :

  List of atomic basis orbitals and eigenvalues:
    n    l      energy [Ha]    energy [eV]    outer radius [A]
    1    0       -18.927378      -515.0401       1.415765
    2    0        -0.880539       -23.9607       5.048385
    2    1        -0.331811        -9.0290       5.301386

  Assembling full basis from fixed parts.
  | Species O :   atomic orbital   1 s accepted.
  | Species O :    hydro orbital   3 s accepted.
  | Species O :   atomic orbital   2 s accepted.
  | Species O :   atomic orbital   2 p accepted.
  | Species O :    hydro orbital   2 p accepted.
  | Species O :    hydro orbital   3 d accepted.
  | Species O :    hydro orbital   4 f accepted.
 
  Basis size parameters after reduction:
  | Total number of radial functions:        7
  | Total number of basis functions :       42
 
  Assembling extended basis for auxiliary basis.
  | Species O :   atomic orbital   1 s accepted.
  | Species O :    hydro orbital   3 s accepted.
  | Species O :   atomic orbital   2 s accepted.
  | Species O :   atomic orbital   2 p accepted.
  | Species O :    hydro orbital   2 p accepted.
  | Species O :    hydro orbital   3 d accepted.
  | Species O :    hydro orbital   4 f accepted.
  | Species O :    hydro orbital   5 g accepted.
  Per-task memory consumption for arrays in subroutine allocate_ext:
  |           2.666220MB.
 
  Extended basis size parameters after reduction:
  | Total number of radial functions:        8
  | Total number of basis functions :       60
 
  Testing on-site integration grid accuracy.
  |  Species  Function  <phi|h_atom|phi> (log., in eV)  <phi|h_atom|phi> (rad., in eV)
           1        1               -515.0401491148               -515.0401445497
           1        2                 15.1629302771                 15.1629233102
           1        3                -21.6127103295                -21.6127145449
           1        4                 -9.0290718243                 -9.0290720379
           1        5                  7.9075681532                  7.9075643182
           1        6                 45.8331828879                 45.8331828941
           1        7                 85.4133898762                 85.4133899074

  Preparing densities etc. for the partition functions (integrals / Hartree potential).

  Preparations completed.
  max(cpu_time)          :      0.225 s.
  Wall clock time (cpu1) :      0.225 s.
------------------------------------------------------------

------------------------------------------------------------
          Begin self-consistency loop: Initialization.

          Date     :  20210824, Time     :  163736.827
------------------------------------------------------------

  Initializing index lists of integration centers etc. from given atomic structure:
  | Number of centers in hartree potential         :         2
  | Number of centers in hartree multipole         :         2
  | Number of centers in electron density summation:         2
  | Number of centers in basis integrals           :         2
  | Number of centers in integrals                 :         2
  | Number of centers in hamiltonian               :         2

  Initializing relaxation algorithms.
  Finished initialization of distributed Hessian storage.
  | Global dimension:         6
  | BLACS block size:         2
  | Number of workers:        3

  * Using 4 tasks for Scalapack Eigenvalue solver.
  Detailed listing of tasks and assigned k-points:
  (for non-periodic systems, the "k-point" denotes an internal label only)
   Task     0 k-point     1 on mercury
   Task     1 k-point     1 on mercury
   Task     2 k-point     1 on mercury
   Task     3 k-point     1 on mercury
  Tasks:     4 split into      2 X      2 BLACS grid
  Calculating block size based on n_basis =           42  max_nprow =            2  max_npcol =            2
  ScaLAPACK block size set to:           16
  Allocating        0.005 MB for ovlp
  Allocating        0.010 MB for ham
  Allocating        0.010 MB for eigenvec
  Required Scalapack workspace - INTEGER:            1  REAL:             1
  Partitioning the integration grid into batches with parallel hashing+maxmin method.
  | Number of batches:      487
  | Maximal batch size:     179
  | Minimal batch size:      71
  | Average batch size:      82.702
  | Standard deviation of batch sizes:      17.660

  Integration load balanced across     4 MPI tasks.
  Work distribution over tasks is as follows:
  Task     0 has      10018 integration points.
  Task     1 has      10017 integration points.
  Task     2 has      10082 integration points.
  Task     3 has      10159 integration points.
  Initializing partition tables, free-atom densities, potentials, etc. across the integration grid (initialize_grid_storage).
  | initialize_grid_storage: Actual outermost partition radius vs. multipole_radius_free
  | (-- VB: in principle, multipole_radius_free should be larger, hence this output)
  | Species        1: Confinement radius =              6.000000000000000 AA, multipole_radius_free =              6.064445521808699 AA.
  | Species        1: outer_partition_radius set to              6.064445521808699 AA .
  | The sparse table of interatomic distances needs          0.04 kbyte instead of         0.03 kbyte of memory.
  | Using the partition_type stratmann_smoother will reduce your memory usage.
  | Net number of integration points:    40276
  | of which are non-zero points    :    38836
  Renormalizing the initial density to the exact electron count on the 3D integration grid.
  | Initial density: Formal number of electrons (from input files) :      16.0000000000
  | Integrated number of electrons on 3D grid     :      15.9999996772
  | Charge integration error                      :      -0.0000003228
  | Normalization factor for density and gradient :       1.0000000202
  Renormalizing the free-atom superposition density to the exact electron count on the 3D integration grid.
  | Formal number of electrons (from input files) :      16.0000000000
  | Integrated number of electrons on 3D grid     :      15.9999996771
  | Charge integration error                      :      -0.0000003229
  | Normalization factor for density and gradient :       1.0000000202
  Obtaining max. number of non-zero basis functions in each batch (get_n_compute_maxes).
  | Maximal number of non-zero basis functions:       42 in task     0
  | Maximal number of non-zero basis functions:       42 in task     1
  | Maximal number of non-zero basis functions:       42 in task     2
  | Maximal number of non-zero basis functions:       42 in task     3
  Selecting the method for density update.
  Loop over occupied states selected for charge density update.
  Allocating        0.009 MB for KS_eigenvector
  Integrating Hamiltonian matrix: batch-based integration.
  Time summed over all CPUs for integration: real work        0.125 s, elapsed        0.187 s => Consider using load balancing!
  Integrating overlap matrix.
  Time summed over all CPUs for integration: real work        0.030 s, elapsed        0.044 s
  Deallocating overlap matrix.

  Updating Kohn-Sham eigenvalues and eigenvectors using ELSI and the ELPA eigensolver.
  Overlap matrix is not singular
  | Lowest and highest eigenvalues :  0.1406E+00,  0.1859E+01
  Finished singularity check of overlap matrix
  | Time :     0.001 s
  Starting ELPA eigensolver
  Finished Cholesky decomposition
  | Time :     0.001 s
  Finished transformation to standard eigenproblem
  | Time :     0.000 s
  Finished solving standard eigenproblem
  | Time :     0.001 s
  Finished back-transformation of eigenvectors
  | Time :     0.000 s
  Starting ELPA eigensolver
  Finished transformation to standard eigenproblem
  | Time :     0.000 s
  Finished solving standard eigenproblem
  | Time :     0.001 s
  Finished back-transformation of eigenvectors
  | Time :     0.000 s

  Obtaining occupation numbers and chemical potential using ELSI.
  | Chemical potential (Fermi level):    -7.96680384 eV
  Writing Kohn-Sham eigenvalues.

  Spin-up eigenvalues:

  State    Occupation    Eigenvalue [Ha]    Eigenvalue [eV]
      1       1.00000         -18.940465         -515.39627
      2       1.00000         -18.940465         -515.39627
      3       1.00000          -0.951474          -25.89092
      4       1.00000          -0.879642          -23.93629
      5       1.00000          -0.428098          -11.64913
      6       1.00000          -0.384476          -10.46212
      7       1.00000          -0.384476          -10.46212
      8       1.00000          -0.338721           -9.21707
      9       1.00000          -0.338721           -9.21707
     10       0.00000          -0.267925           -7.29060
     11       0.00000           0.234045            6.36870
     12       0.00000           0.238440            6.48830
     13       0.00000           0.238440            6.48830
     14       0.00000           0.401783           10.93308

  Spin-down eigenvalues:

  State    Occupation    Eigenvalue [Ha]    Eigenvalue [eV]
      1       1.00000         -18.917703         -514.77690
      2       1.00000         -18.917703         -514.77690
      3       1.00000          -0.893317          -24.30840
      4       1.00000          -0.819116          -22.28928
      5       1.00000          -0.372014          -10.12302
      6       1.00000          -0.330326           -8.98864
      7       1.00000          -0.330326           -8.98864
      8       0.00000          -0.280829           -7.64176
      9       0.00000          -0.280829           -7.64176
     10       0.00000          -0.207402           -5.64369
     11       0.00000           0.254593            6.92783
     12       0.00000           0.262268            7.13667
     13       0.00000           0.262268            7.13667
     14       0.00000           0.425899           11.58930

  Current spin moment of the entire structure :
  | N = N_up - N_down :    2.00
  | S                 :    1.00
  | J                 :    3.00

  Highest occupied state (VBM) at     -8.98863865 eV
  | Occupation number:      1.00000000
  | Spin channel:        2

  Lowest unoccupied state (CBM) at    -7.64175943 eV
  | Occupation number:      0.00000000
  | Spin channel:        2

  Overall HOMO-LUMO gap:      1.34687922 eV.
  Calculating total energy contributions from superposition of free atom densities.

  Total energy components:
  | Sum of eigenvalues            :         -82.16704407 Ha       -2235.87902938 eV
  | XC energy correction          :         -16.62331056 Ha        -452.34329539 eV
  | XC potential correction       :          21.35384503 Ha         581.06768779 eV
  | Free-atom electrostatic energy:         -72.81785571 Ha       -1981.47467025 eV
  | Hartree energy correction     :           0.00000000 Ha           0.00000000 eV
  | Entropy correction            :           0.00000000 Ha           0.00000000 eV
  | ---------------------------
  | Total energy                  :        -150.25436531 Ha       -4088.62930724 eV
  | Total energy, T -> 0          :        -150.25436531 Ha       -4088.62930724 eV  <-- do not rely on this value for anything but (periodic) metals
  | Electronic free energy        :        -150.25436531 Ha       -4088.62930724 eV

  Derived energy quantities:
  | Kinetic energy                :         149.76121777 Ha        4075.21007995 eV
  | Electrostatic energy          :        -283.39227252 Ha       -7711.49609180 eV
  | Energy correction for multipole
  | error in Hartree potential    :           0.00000000 Ha           0.00000000 eV
  | Sum of eigenvalues per atom                           :       -1117.93951469 eV
  | Total energy (T->0) per atom                          :       -2044.31465362 eV  <-- do not rely on this value for anything but (periodic) metals
  | Electronic free energy per atom                       :       -2044.31465362 eV
  Initialize hartree_potential_storage
  Max. number of atoms included in rho_multipole:            2

  End scf initialization - timings             :  max(cpu_time)    wall_clock(cpu1)
  | Time for scf. initialization               :        0.113 s           0.113 s
  | Boundary condition initialization          :        0.000 s           0.001 s
  | Relaxation initialization                  :        0.001 s           0.000 s
  | Integration                                :        0.058 s           0.058 s
  | Solution of K.-S. eqns.                    :        0.004 s           0.004 s
  | Grid partitioning                          :        0.019 s           0.019 s
  | Preloading free-atom quantities on grid    :        0.016 s           0.016 s
  | Free-atom superposition energy             :        0.013 s           0.013 s
  | Total energy evaluation                    :        0.000 s           0.000 s

  Partial memory accounting:
  | Current value for overall tracked memory usage:
  |   Minimum:        0.034 MB (on task 3)
  |   Maximum:        0.050 MB (on task 0)
  |   Average:        0.041 MB
  | Peak value for overall tracked memory usage:
  |   Minimum:        0.342 MB (on task 3 after allocating wave)
  |   Maximum:        0.395 MB (on task 0 after allocating wave)
  |   Average:        0.367 MB
  | Largest tracked array allocation so far:
  |   Minimum:        0.216 MB (all_coords on task 1)
  |   Maximum:        0.245 MB (all_coords on task 0)
  |   Average:        0.230 MB
  Note:  These values currently only include a subset of arrays which are explicitly tracked.
  The "true" memory usage will be greater.
------------------------------------------------------------
  Evaluating new KS density.
  Integration grid: deviation in total charge (<rho> - N_e) =  -3.552714E-15
  | <rho_up-rho_dn> = N_up-N_dn =      2.0000; <|rho_up-rho_dn|> =      2.0231

------------------------------------------------------------
          Begin self-consistency iteration #    1

  Date     :  20210824, Time     :  163736.976
------------------------------------------------------------
  Pulay mixing of updated and previous charge densities.
  Renormalizing the density to the exact electron count on the 3D integration grid.
  | Formal number of electrons (from input files) :      16.0000000000
  | Integrated number of electrons on 3D grid     :      16.0000000000
  | Charge integration error                      :       0.0000000000
  | Normalization factor for density and gradient :       1.0000000000

  Evaluating partitioned Hartree potential by multipole expansion.
  | Original multipole sum: apparent total charge =  -0.982048E-14
  | Sum of charges compensated after spline to logarithmic grids =  -0.352666E-08
  | Analytical far-field extrapolation by fixed multipoles:
  | Hartree multipole sum: apparent total charge =  -0.981872E-14
  Summing up the Hartree potential.
  Time summed over all CPUs for potential: real work        0.032 s, elapsed        0.048 s
  | RMS charge density error from multipole expansion :   0.372275E-04

  Integrating Hamiltonian matrix: batch-based integration.
  Time summed over all CPUs for integration: real work        0.124 s, elapsed        0.185 s => Consider using load balancing!

  Updating Kohn-Sham eigenvalues and eigenvectors using ELSI and the ELPA eigensolver.
  Starting ELPA eigensolver
  Finished transformation to standard eigenproblem
  | Time :     0.000 s
  Finished solving standard eigenproblem
  | Time :     0.001 s
  Finished back-transformation of eigenvectors
  | Time :     0.000 s
  Starting ELPA eigensolver
  Finished transformation to standard eigenproblem
  | Time :     0.000 s
  Finished solving standard eigenproblem
  | Time :     0.001 s
  Finished back-transformation of eigenvectors
  | Time :     0.000 s

  Obtaining occupation numbers and chemical potential using ELSI.
  | Chemical potential (Fermi level):    -7.94601891 eV
  Writing Kohn-Sham eigenvalues.

  Spin-up eigenvalues:

  State    Occupation    Eigenvalue [Ha]    Eigenvalue [eV]
      1       1.00000         -18.938609         -515.34576
      2       1.00000         -18.938609         -515.34576
      3       1.00000          -0.950717          -25.87033
      4       1.00000          -0.878614          -23.90830
      5       1.00000          -0.427033          -11.62016
      6       1.00000          -0.383701          -10.44103
      7       1.00000          -0.383701          -10.44103
      8       1.00000          -0.337850           -9.19336
      9       1.00000          -0.337850           -9.19336
     10       0.00000          -0.266871           -7.26192
     11       0.00000           0.234531            6.38193
     12       0.00000           0.238789            6.49777
     13       0.00000           0.238789            6.49777
     14       0.00000           0.402080           10.94114

  Spin-down eigenvalues:

  State    Occupation    Eigenvalue [Ha]    Eigenvalue [eV]
      1       1.00000         -18.915742         -514.72353
      2       1.00000         -18.915742         -514.72353
      3       1.00000          -0.892623          -24.28950
      4       1.00000          -0.817937          -22.25719
      5       1.00000          -0.372369          -10.13267
      6       1.00000          -0.328888           -8.94949
      7       1.00000          -0.328888           -8.94949
      8       0.00000          -0.279122           -7.59529
      9       0.00000          -0.279122           -7.59529
     10       0.00000          -0.207710           -5.65208
     11       0.00000           0.254723            6.93138
     12       0.00000           0.262914            7.15424
     13       0.00000           0.262914            7.15424
     14       0.00000           0.426621           11.60894

  Current spin moment of the entire structure :
  | N = N_up - N_down :    2.00
  | S                 :    1.00
  | J                 :    3.00

  Highest occupied state (VBM) at     -8.94948616 eV
  | Occupation number:      1.00000000
  | Spin channel:        2

  Lowest unoccupied state (CBM) at    -7.59529205 eV
  | Occupation number:      0.00000000
  | Spin channel:        2

  Overall HOMO-LUMO gap:      1.35419411 eV.

  Total energy components:
  | Sum of eigenvalues            :         -82.14887028 Ha       -2235.38449530 eV
  | XC energy correction          :         -16.62056784 Ha        -452.26866205 eV
  | XC potential correction       :          21.35029387 Ha         580.97105561 eV
  | Free-atom electrostatic energy:         -72.81785571 Ha       -1981.47467025 eV
  | Hartree energy correction     :          -0.01767151 Ha          -0.48086616 eV
  | Entropy correction            :           0.00000000 Ha           0.00000000 eV
  | ---------------------------
  | Total energy                  :        -150.25467147 Ha       -4088.63763816 eV
  | Total energy, T -> 0          :        -150.25467147 Ha       -4088.63763816 eV  <-- do not rely on this value for anything but (periodic) metals
  | Electronic free energy        :        -150.25467147 Ha       -4088.63763816 eV

  Derived energy quantities:
  | Kinetic energy                :         149.76457756 Ha        4075.30150443 eV
  | Electrostatic energy          :        -283.39868119 Ha       -7711.67048053 eV
  | Energy correction for multipole
  | error in Hartree potential    :          -0.00000065 Ha          -0.00001756 eV
  | Sum of eigenvalues per atom                           :       -1117.69224765 eV
  | Total energy (T->0) per atom                          :       -2044.31881908 eV  <-- do not rely on this value for anything but (periodic) metals
  | Electronic free energy per atom                       :       -2044.31881908 eV

  Self-consistency convergence accuracy:
  | Change of charge/spin density :  0.1758E+00  0.1749E+00
  | Change of sum of eigenvalues  :  0.4945E+00 eV
  | Change of total energy        : -0.8331E-02 eV

  Evaluating new KS density.
  Integration grid: deviation in total charge (<rho> - N_e) =   1.776357E-14
  | <rho_up-rho_dn> = N_up-N_dn =      2.0000; <|rho_up-rho_dn|> =      2.0238
  End self-consistency iteration #     1       :  max(cpu_time)    wall_clock(cpu1)
  | Time for this iteration                    :        0.100 s           0.100 s
  | Charge density update                      :        0.033 s           0.032 s
  | Density mixing                             :        0.002 s           0.002 s
  | Hartree multipole update                   :        0.004 s           0.004 s
  | Hartree multipole summation                :        0.013 s           0.013 s
  | Integration                                :        0.047 s           0.046 s
  | Solution of K.-S. eqns.                    :        0.002 s           0.002 s
  | Total energy evaluation                    :        0.000 s           0.000 s

  Partial memory accounting:
  | Current value for overall tracked memory usage:
  |   Minimum:        0.034 MB (on task 3)
  |   Maximum:        0.050 MB (on task 0)
  |   Average:        0.041 MB
  | Peak value for overall tracked memory usage:
  |   Minimum:        0.342 MB (on task 3 after allocating wave)
  |   Maximum:        0.395 MB (on task 0 after allocating wave)
  |   Average:        0.367 MB
  | Largest tracked array allocation so far:
  |   Minimum:        0.216 MB (all_coords on task 1)
  |   Maximum:        0.245 MB (all_coords on task 0)
  |   Average:        0.230 MB
  Note:  These values currently only include a subset of arrays which are explicitly tracked.
  The "true" memory usage will be greater.
------------------------------------------------------------

------------------------------------------------------------
          Begin self-consistency iteration #    2

  Date     :  20210824, Time     :  163737.076
------------------------------------------------------------
  Pulay mixing of updated and previous charge densities.
  Renormalizing the density to the exact electron count on the 3D integration grid.
  | Formal number of electrons (from input files) :      16.0000000000
  | Integrated number of electrons on 3D grid     :      16.0000000000
  | Charge integration error                      :       0.0000000000
  | Normalization factor for density and gradient :       1.0000000000

  Evaluating partitioned Hartree potential by multipole expansion.
  | Original multipole sum: apparent total charge =  -0.441395E-13
  | Sum of charges compensated after spline to logarithmic grids =   0.190290E-07
  | Analytical far-field extrapolation by fixed multipoles:
  | Hartree multipole sum: apparent total charge =  -0.441693E-13
  Summing up the Hartree potential.
  Time summed over all CPUs for potential: real work        0.033 s, elapsed        0.050 s
  | RMS charge density error from multipole expansion :   0.798273E-03

  Integrating Hamiltonian matrix: batch-based integration.
  Time summed over all CPUs for integration: real work        0.123 s, elapsed        0.185 s => Consider using load balancing!

  Updating Kohn-Sham eigenvalues and eigenvectors using ELSI and the ELPA eigensolver.
  Starting ELPA eigensolver
  Finished transformation to standard eigenproblem
  | Time :     0.000 s
  Finished solving standard eigenproblem
  | Time :     0.001 s
  Finished back-transformation of eigenvectors
  | Time :     0.000 s
  Starting ELPA eigensolver
  Finished transformation to standard eigenproblem
  | Time :     0.000 s
  Finished solving standard eigenproblem
  | Time :     0.000 s
  Finished back-transformation of eigenvectors
  | Time :     0.000 s

  Obtaining occupation numbers and chemical potential using ELSI.
  | Chemical potential (Fermi level):    -8.34858557 eV
  Current spin moment of the entire structure :
  | N = N_up - N_down :    2.00
  | S                 :    1.00
  | J                 :    3.00

  Highest occupied state (VBM) at     -9.14770061 eV
  | Occupation number:      1.00000000
  | Spin channel:        2

  Lowest unoccupied state (CBM) at    -7.77017394 eV
  | Occupation number:      0.00000000
  | Spin channel:        1

  Overall HOMO-LUMO gap:      1.37752667 eV.

  Checking to see if s.c.f. parameters should be adjusted.
  The system likely has a gap. Increased the default Pulay mixing parameter (charge_mix_param). Value:   0.200000 .
  Kept the default occupation width. Value:   0.010000 eV.

  Total energy components:
  | Sum of eigenvalues            :         -82.57281154 Ha       -2246.92052405 eV
  | XC energy correction          :         -16.58100748 Ha        -451.19217004 eV
  | XC potential correction       :          21.29841555 Ha         579.55937486 eV
  | Free-atom electrostatic energy:         -72.81785571 Ha       -1981.47467025 eV
  | Hartree energy correction     :           0.41474149 Ha          11.28569025 eV
  | Entropy correction            :           0.00000000 Ha           0.00000000 eV
  | ---------------------------
  | Total energy                  :        -150.25851769 Ha       -4088.74229923 eV
  | Total energy, T -> 0          :        -150.25851769 Ha       -4088.74229923 eV  <-- do not rely on this value for anything but (periodic) metals
  | Electronic free energy        :        -150.25851769 Ha       -4088.74229923 eV

  Derived energy quantities:
  | Kinetic energy                :         149.36042403 Ha        4064.30392747 eV
  | Electrostatic energy          :        -283.03793424 Ha       -7701.85405666 eV
  | Energy correction for multipole
  | error in Hartree potential    :          -0.00022107 Ha          -0.00601552 eV
  | Sum of eigenvalues per atom                           :       -1123.46026202 eV
  | Total energy (T->0) per atom                          :       -2044.37114961 eV  <-- do not rely on this value for anything but (periodic) metals
  | Electronic free energy per atom                       :       -2044.37114961 eV

  Self-consistency convergence accuracy:
  | Change of charge/spin density :  0.1664E+00  0.1667E+00
  | Change of sum of eigenvalues  : -0.1154E+02 eV
  | Change of total energy        : -0.1047E+00 eV

  Evaluating new KS density.
  Integration grid: deviation in total charge (<rho> - N_e) =   1.421085E-14
  | <rho_up-rho_dn> = N_up-N_dn =      2.0000; <|rho_up-rho_dn|> =      2.0376
  End self-consistency iteration #     2       :  max(cpu_time)    wall_clock(cpu1)
  | Time for this iteration                    :        0.101 s           0.101 s
  | Charge density update                      :        0.033 s           0.033 s
  | Density mixing                             :        0.003 s           0.003 s
  | Hartree multipole update                   :        0.003 s           0.003 s
  | Hartree multipole summation                :        0.013 s           0.013 s
  | Integration                                :        0.047 s           0.047 s
  | Solution of K.-S. eqns.                    :        0.002 s           0.002 s
  | Total energy evaluation                    :        0.000 s           0.000 s

  Partial memory accounting:
  | Current value for overall tracked memory usage:
  |   Minimum:        0.034 MB (on task 3)
  |   Maximum:        0.050 MB (on task 0)
  |   Average:        0.041 MB
  | Peak value for overall tracked memory usage:
  |   Minimum:        0.342 MB (on task 3 after allocating wave)
  |   Maximum:        0.395 MB (on task 0 after allocating wave)
  |   Average:        0.367 MB
  | Largest tracked array allocation so far:
  |   Minimum:        0.216 MB (all_coords on task 1)
  |   Maximum:        0.245 MB (all_coords on task 0)
  |   Average:        0.230 MB
  Note:  These values currently only include a subset of arrays which are explicitly tracked.
  The "true" memory usage will be greater.
------------------------------------------------------------

------------------------------------------------------------
          Begin self-consistency iteration #    3

  Date     :  20210824, Time     :  163737.178
------------------------------------------------------------
  Pulay mixing of updated and previous charge densities.
  Renormalizing the density to the exact electron count on the 3D integration grid.
  | Formal number of electrons (from input files) :      16.0000000000
  | Integrated number of electrons on 3D grid     :      16.0000000000
  | Charge integration error                      :       0.0000000000
  | Normalization factor for density and gradient :       1.0000000000

  Evaluating partitioned Hartree potential by multipole expansion.
  | Original multipole sum: apparent total charge =  -0.103806E-12
  | Sum of charges compensated after spline to logarithmic grids =   0.182943E-07
  | Analytical far-field extrapolation by fixed multipoles:
  | Hartree multipole sum: apparent total charge =  -0.103776E-12
  Summing up the Hartree potential.
  Time summed over all CPUs for potential: real work        0.033 s, elapsed        0.050 s
  | RMS charge density error from multipole expansion :   0.802950E-03

  Integrating Hamiltonian matrix: batch-based integration.
  Time summed over all CPUs for integration: real work        0.124 s, elapsed        0.187 s => Consider using load balancing!

  Updating Kohn-Sham eigenvalues and eigenvectors using ELSI and the ELPA eigensolver.
  Starting ELPA eigensolver
  Finished transformation to standard eigenproblem
  | Time :     0.000 s
  Finished solving standard eigenproblem
  | Time :     0.001 s
  Finished back-transformation of eigenvectors
  | Time :     0.000 s
  Starting ELPA eigensolver
  Finished transformation to standard eigenproblem
  | Time :     0.000 s
  Finished solving standard eigenproblem
  | Time :     0.000 s
  Finished back-transformation of eigenvectors
  | Time :     0.001 s

  Obtaining occupation numbers and chemical potential using ELSI.
  | Chemical potential (Fermi level):    -8.34690466 eV
  Current spin moment of the entire structure :
  | N = N_up - N_down :    2.00
  | S                 :    1.00
  | J                 :    3.00

  Highest occupied state (VBM) at     -9.11946519 eV
  | Occupation number:      1.00000000
  | Spin channel:        2

  Lowest unoccupied state (CBM) at    -7.73697744 eV
  | Occupation number:      0.00000000
  | Spin channel:        1

  Overall HOMO-LUMO gap:      1.38248775 eV.

  Total energy components:
  | Sum of eigenvalues            :         -82.56399990 Ha       -2246.68074704 eV
  | XC energy correction          :         -16.58219548 Ha        -451.22449715 eV
  | XC potential correction       :          21.29994570 Ha         579.60101237 eV
  | Free-atom electrostatic energy:         -72.81785571 Ha       -1981.47467025 eV
  | Hartree energy correction     :           0.40564586 Ha          11.03818555 eV
  | Entropy correction            :           0.00000000 Ha           0.00000000 eV
  | ---------------------------
  | Total energy                  :        -150.25845953 Ha       -4088.74071653 eV
  | Total energy, T -> 0          :        -150.25845953 Ha       -4088.74071653 eV  <-- do not rely on this value for anything but (periodic) metals
  | Electronic free energy        :        -150.25845953 Ha       -4088.74071653 eV

  Derived energy quantities:
  | Kinetic energy                :         149.36393602 Ha        4064.39949348 eV
  | Electrostatic energy          :        -283.04020006 Ha       -7701.91571286 eV
  | Energy correction for multipole
  | error in Hartree potential    :          -0.00022206 Ha          -0.00604266 eV
  | Sum of eigenvalues per atom                           :       -1123.34037352 eV
  | Total energy (T->0) per atom                          :       -2044.37035826 eV  <-- do not rely on this value for anything but (periodic) metals
  | Electronic free energy per atom                       :       -2044.37035826 eV

  Self-consistency convergence accuracy:
  | Change of charge/spin density :  0.3446E-01  0.2494E-01
  | Change of sum of eigenvalues  :  0.2398E+00 eV
  | Change of total energy        :  0.1583E-02 eV

  Evaluating new KS density.
  Integration grid: deviation in total charge (<rho> - N_e) =   2.131628E-14
  | <rho_up-rho_dn> = N_up-N_dn =      2.0000; <|rho_up-rho_dn|> =      2.0387
  End self-consistency iteration #     3       :  max(cpu_time)    wall_clock(cpu1)
  | Time for this iteration                    :        0.103 s           0.103 s
  | Charge density update                      :        0.033 s           0.033 s
  | Density mixing                             :        0.004 s           0.004 s
  | Hartree multipole update                   :        0.003 s           0.004 s
  | Hartree multipole summation                :        0.013 s           0.012 s
  | Integration                                :        0.047 s           0.048 s
  | Solution of K.-S. eqns.                    :        0.002 s           0.002 s
  | Total energy evaluation                    :        0.000 s           0.000 s

  Partial memory accounting:
  | Current value for overall tracked memory usage:
  |   Minimum:        0.034 MB (on task 3)
  |   Maximum:        0.050 MB (on task 0)
  |   Average:        0.041 MB
  | Peak value for overall tracked memory usage:
  |   Minimum:        0.342 MB (on task 3 after allocating wave)
  |   Maximum:        0.395 MB (on task 0 after allocating wave)
  |   Average:        0.367 MB
  | Largest tracked array allocation so far:
  |   Minimum:        0.216 MB (all_coords on task 1)
  |   Maximum:        0.245 MB (all_coords on task 0)
  |   Average:        0.230 MB
  Note:  These values currently only include a subset of arrays which are explicitly tracked.
  The "true" memory usage will be greater.
------------------------------------------------------------

------------------------------------------------------------
          Begin self-consistency iteration #    4

  Date     :  20210824, Time     :  163737.281
------------------------------------------------------------
  Pulay mixing of updated and previous charge densities.
  Renormalizing the density to the exact electron count on the 3D integration grid.
  | Formal number of electrons (from input files) :      16.0000000000
  | Integrated number of electrons on 3D grid     :      16.0000000000
  | Charge integration error                      :       0.0000000000
  | Normalization factor for density and gradient :       1.0000000000

  Evaluating partitioned Hartree potential by multipole expansion.
  | Original multipole sum: apparent total charge =  -0.506127E-13
  | Sum of charges compensated after spline to logarithmic grids =   0.104822E-07
  | Analytical far-field extrapolation by fixed multipoles:
  | Hartree multipole sum: apparent total charge =  -0.505858E-13
  Summing up the Hartree potential.
  Time summed over all CPUs for potential: real work        0.033 s, elapsed        0.050 s
  | RMS charge density error from multipole expansion :   0.775086E-03

  Integrating Hamiltonian matrix: batch-based integration.
  Time summed over all CPUs for integration: real work        0.124 s, elapsed        0.186 s => Consider using load balancing!

  Updating Kohn-Sham eigenvalues and eigenvectors using ELSI and the ELPA eigensolver.
  Starting ELPA eigensolver
  Finished transformation to standard eigenproblem
  | Time :     0.000 s
  Finished solving standard eigenproblem
  | Time :     0.001 s
  Finished back-transformation of eigenvectors
  | Time :     0.000 s
  Starting ELPA eigensolver
  Finished transformation to standard eigenproblem
  | Time :     0.000 s
  Finished solving standard eigenproblem
  | Time :     0.000 s
  Finished back-transformation of eigenvectors
  | Time :     0.001 s

  Obtaining occupation numbers and chemical potential using ELSI.
  | Chemical potential (Fermi level):    -8.30868085 eV
  Current spin moment of the entire structure :
  | N = N_up - N_down :    2.00
  | S                 :    1.00
  | J                 :    3.00

  Highest occupied state (VBM) at     -9.02344308 eV
  | Occupation number:      1.00000000
  | Spin channel:        2

  Lowest unoccupied state (CBM) at    -7.62942533 eV
  | Occupation number:      0.00000000
  | Spin channel:        2

  Overall HOMO-LUMO gap:      1.39401775 eV.

  Total energy components:
  | Sum of eigenvalues            :         -82.51080489 Ha       -2245.23323738 eV
  | XC energy correction          :         -16.58830439 Ha        -451.39072885 eV
  | XC potential correction       :          21.30791257 Ha         579.81780184 eV
  | Free-atom electrostatic energy:         -72.81785571 Ha       -1981.47467025 eV
  | Hartree energy correction     :           0.35082462 Ha           9.54642375 eV
  | Entropy correction            :           0.00000000 Ha           0.00000000 eV
  | ---------------------------
  | Total energy                  :        -150.25822780 Ha       -4088.73441089 eV
  | Total energy, T -> 0          :        -150.25822780 Ha       -4088.73441089 eV  <-- do not rely on this value for anything but (periodic) metals
  | Electronic free energy        :        -150.25822780 Ha       -4088.73441089 eV

  Derived energy quantities:
  | Kinetic energy                :         149.40421079 Ha        4065.49542572 eV
  | Electrostatic energy          :        -283.07413420 Ha       -7702.83910776 eV
  | Energy correction for multipole
  | error in Hartree potential    :          -0.00021088 Ha          -0.00573840 eV
  | Sum of eigenvalues per atom                           :       -1122.61661869 eV
  | Total energy (T->0) per atom                          :       -2044.36720545 eV  <-- do not rely on this value for anything but (periodic) metals
  | Electronic free energy per atom                       :       -2044.36720545 eV

  Self-consistency convergence accuracy:
  | Change of charge/spin density :  0.3147E-01  0.1859E-01
  | Change of sum of eigenvalues  :  0.1448E+01 eV
  | Change of total energy        :  0.6306E-02 eV

  Evaluating new KS density.
  Integration grid: deviation in total charge (<rho> - N_e) =  -1.776357E-14
  | <rho_up-rho_dn> = N_up-N_dn =      2.0000; <|rho_up-rho_dn|> =      2.0411
  End self-consistency iteration #     4       :  max(cpu_time)    wall_clock(cpu1)
  | Time for this iteration                    :        0.103 s           0.103 s
  | Charge density update                      :        0.033 s           0.033 s
  | Density mixing                             :        0.005 s           0.005 s
  | Hartree multipole update                   :        0.003 s           0.003 s
  | Hartree multipole summation                :        0.013 s           0.013 s
  | Integration                                :        0.047 s           0.047 s
  | Solution of K.-S. eqns.                    :        0.002 s           0.002 s
  | Total energy evaluation                    :        0.000 s           0.000 s

  Partial memory accounting:
  | Current value for overall tracked memory usage:
  |   Minimum:        0.034 MB (on task 3)
  |   Maximum:        0.050 MB (on task 0)
  |   Average:        0.041 MB
  | Peak value for overall tracked memory usage:
  |   Minimum:        0.342 MB (on task 3 after allocating wave)
  |   Maximum:        0.395 MB (on task 0 after allocating wave)
  |   Average:        0.367 MB
  | Largest tracked array allocation so far:
  |   Minimum:        0.216 MB (all_coords on task 1)
  |   Maximum:        0.245 MB (all_coords on task 0)
  |   Average:        0.230 MB
  Note:  These values currently only include a subset of arrays which are explicitly tracked.
  The "true" memory usage will be greater.
------------------------------------------------------------

------------------------------------------------------------
          Begin self-consistency iteration #    5

  Date     :  20210824, Time     :  163737.384
------------------------------------------------------------
  Pulay mixing of updated and previous charge densities.
  Renormalizing the density to the exact electron count on the 3D integration grid.
  | Formal number of electrons (from input files) :      16.0000000000
  | Integrated number of electrons on 3D grid     :      16.0000000000
  | Charge integration error                      :       0.0000000000
  | Normalization factor for density and gradient :       1.0000000000

  Evaluating partitioned Hartree potential by multipole expansion.
  | Original multipole sum: apparent total charge =  -0.288130E-13
  | Sum of charges compensated after spline to logarithmic grids =   0.178142E-07
  | Analytical far-field extrapolation by fixed multipoles:
  | Hartree multipole sum: apparent total charge =  -0.288789E-13
  Summing up the Hartree potential.
  Time summed over all CPUs for potential: real work        0.033 s, elapsed        0.050 s
  | RMS charge density error from multipole expansion :   0.753033E-03

  Integrating Hamiltonian matrix: batch-based integration.
  Time summed over all CPUs for integration: real work        0.123 s, elapsed        0.185 s => Consider using load balancing!

  Updating Kohn-Sham eigenvalues and eigenvectors using ELSI and the ELPA eigensolver.
  Starting ELPA eigensolver
  Finished transformation to standard eigenproblem
  | Time :     0.001 s
  Finished solving standard eigenproblem
  | Time :     0.000 s
  Finished back-transformation of eigenvectors
  | Time :     0.000 s
  Starting ELPA eigensolver
  Finished transformation to standard eigenproblem
  | Time :     0.000 s
  Finished solving standard eigenproblem
  | Time :     0.000 s
  Finished back-transformation of eigenvectors
  | Time :     0.000 s

  Obtaining occupation numbers and chemical potential using ELSI.
  | Chemical potential (Fermi level):    -8.27012677 eV
  Current spin moment of the entire structure :
  | N = N_up - N_down :    2.00
  | S                 :    1.00
  | J                 :    3.00

  Highest occupied state (VBM) at     -8.95671038 eV
  | Occupation number:      1.00000000
  | Spin channel:        2

  Lowest unoccupied state (CBM) at    -7.55532775 eV
  | Occupation number:      0.00000000
  | Spin channel:        2

  Overall HOMO-LUMO gap:      1.40138263 eV.

  Total energy components:
  | Sum of eigenvalues            :         -82.45774772 Ha       -2243.78947824 eV
  | XC energy correction          :         -16.59630615 Ha        -451.60846782 eV
  | XC potential correction       :          21.31837089 Ha         580.10238720 eV
  | Free-atom electrostatic energy:         -72.81785571 Ha       -1981.47467025 eV
  | Hartree energy correction     :           0.29547917 Ha           8.04039721 eV
  | Entropy correction            :           0.00000000 Ha           0.00000000 eV
  | ---------------------------
  | Total energy                  :        -150.25805952 Ha       -4088.72983191 eV
  | Total energy, T -> 0          :        -150.25805952 Ha       -4088.72983191 eV  <-- do not rely on this value for anything but (periodic) metals
  | Electronic free energy        :        -150.25805952 Ha       -4088.72983191 eV

  Derived energy quantities:
  | Kinetic energy                :         149.46215539 Ha        4067.07217849 eV
  | Electrostatic energy          :        -283.12390877 Ha       -7704.19354257 eV
  | Energy correction for multipole
  | error in Hartree potential    :          -0.00019560 Ha          -0.00532250 eV
  | Sum of eigenvalues per atom                           :       -1121.89473912 eV
  | Total energy (T->0) per atom                          :       -2044.36491595 eV  <-- do not rely on this value for anything but (periodic) metals
  | Electronic free energy per atom                       :       -2044.36491595 eV

  Self-consistency convergence accuracy:
  | Change of charge/spin density :  0.2310E-01  0.7376E-02
  | Change of sum of eigenvalues  :  0.1444E+01 eV
  | Change of total energy        :  0.4579E-02 eV

  Evaluating new KS density.
  Integration grid: deviation in total charge (<rho> - N_e) =   3.552714E-15
  | <rho_up-rho_dn> = N_up-N_dn =      2.0000; <|rho_up-rho_dn|> =      2.0425
  End self-consistency iteration #     5       :  max(cpu_time)    wall_clock(cpu1)
  | Time for this iteration                    :        0.105 s           0.106 s
  | Charge density update                      :        0.033 s           0.032 s
  | Density mixing                             :        0.007 s           0.007 s
  | Hartree multipole update                   :        0.004 s           0.004 s
  | Hartree multipole summation                :        0.013 s           0.013 s
  | Integration                                :        0.046 s           0.046 s
  | Solution of K.-S. eqns.                    :        0.002 s           0.002 s
  | Total energy evaluation                    :        0.000 s           0.001 s

  Partial memory accounting:
  | Current value for overall tracked memory usage:
  |   Minimum:        0.034 MB (on task 3)
  |   Maximum:        0.050 MB (on task 0)
  |   Average:        0.041 MB
  | Peak value for overall tracked memory usage:
  |   Minimum:        0.342 MB (on task 3 after allocating wave)
  |   Maximum:        0.395 MB (on task 0 after allocating wave)
  |   Average:        0.367 MB
  | Largest tracked array allocation so far:
  |   Minimum:        0.216 MB (all_coords on task 1)
  |   Maximum:        0.245 MB (all_coords on task 0)
  |   Average:        0.230 MB
  Note:  These values currently only include a subset of arrays which are explicitly tracked.
  The "true" memory usage will be greater.
------------------------------------------------------------

------------------------------------------------------------
          Begin self-consistency iteration #    6

  Date     :  20210824, Time     :  163737.490
------------------------------------------------------------
  Pulay mixing of updated and previous charge densities.
  Renormalizing the density to the exact electron count on the 3D integration grid.
  | Formal number of electrons (from input files) :      16.0000000000
  | Integrated number of electrons on 3D grid     :      16.0000000000
  | Charge integration error                      :       0.0000000000
  | Normalization factor for density and gradient :       1.0000000000

  Evaluating partitioned Hartree potential by multipole expansion.
  | Original multipole sum: apparent total charge =  -0.592739E-13
  | Sum of charges compensated after spline to logarithmic grids =   0.145515E-07
  | Analytical far-field extrapolation by fixed multipoles:
  | Hartree multipole sum: apparent total charge =  -0.592535E-13
  Summing up the Hartree potential.
  Time summed over all CPUs for potential: real work        0.033 s, elapsed        0.050 s
  | RMS charge density error from multipole expansion :   0.754391E-03

  Integrating Hamiltonian matrix: batch-based integration.
  Time summed over all CPUs for integration: real work        0.123 s, elapsed        0.185 s => Consider using load balancing!

  Updating Kohn-Sham eigenvalues and eigenvectors using ELSI and the ELPA eigensolver.
  Starting ELPA eigensolver
  Finished transformation to standard eigenproblem
  | Time :     0.001 s
  Finished solving standard eigenproblem
  | Time :     0.000 s
  Finished back-transformation of eigenvectors
  | Time :     0.000 s
  Starting ELPA eigensolver
  Finished transformation to standard eigenproblem
  | Time :     0.001 s
  Finished solving standard eigenproblem
  | Time :     0.000 s
  Finished back-transformation of eigenvectors
  | Time :     0.000 s

  Obtaining occupation numbers and chemical potential using ELSI.
  | Chemical potential (Fermi level):    -8.26017502 eV
  Current spin moment of the entire structure :
  | N = N_up - N_down :    2.00
  | S                 :    1.00
  | J                 :    3.00

  Highest occupied state (VBM) at     -8.93992463 eV
  | Occupation number:      1.00000000
  | Spin channel:        2

  Lowest unoccupied state (CBM) at    -7.53705530 eV
  | Occupation number:      0.00000000
  | Spin channel:        2

  Overall HOMO-LUMO gap:      1.40286933 eV.

  Total energy components:
  | Sum of eigenvalues            :         -82.44379814 Ha       -2243.40989089 eV
  | XC energy correction          :         -16.59833694 Ha        -451.66372865 eV
  | XC potential correction       :          21.32102382 Ha         580.17457698 eV
  | Free-atom electrostatic energy:         -72.81785571 Ha       -1981.47467025 eV
  | Hartree energy correction     :           0.28094170 Ha           7.64481265 eV
  | Entropy correction            :           0.00000000 Ha           0.00000000 eV
  | ---------------------------
  | Total energy                  :        -150.25802528 Ha       -4088.72890016 eV
  | Total energy, T -> 0          :        -150.25802528 Ha       -4088.72890016 eV  <-- do not rely on this value for anything but (periodic) metals
  | Electronic free energy        :        -150.25802528 Ha       -4088.72890016 eV

  Derived energy quantities:
  | Kinetic energy                :         149.47650342 Ha        4067.46260822 eV
  | Electrostatic energy          :        -283.13619176 Ha       -7704.52777973 eV
  | Energy correction for multipole
  | error in Hartree potential    :          -0.00019329 Ha          -0.00525968 eV
  | Sum of eigenvalues per atom                           :       -1121.70494544 eV
  | Total energy (T->0) per atom                          :       -2044.36445008 eV  <-- do not rely on this value for anything but (periodic) metals
  | Electronic free energy per atom                       :       -2044.36445008 eV

  Self-consistency convergence accuracy:
  | Change of charge/spin density :  0.1604E-01  0.2918E-02
  | Change of sum of eigenvalues  :  0.3796E+00 eV
  | Change of total energy        :  0.9317E-03 eV

  Evaluating new KS density.
  Integration grid: deviation in total charge (<rho> - N_e) =   0.000000E+00
  | <rho_up-rho_dn> = N_up-N_dn =      2.0000; <|rho_up-rho_dn|> =      2.0425
  End self-consistency iteration #     6       :  max(cpu_time)    wall_clock(cpu1)
  | Time for this iteration                    :        0.105 s           0.105 s
  | Charge density update                      :        0.033 s           0.033 s
  | Density mixing                             :        0.008 s           0.008 s
  | Hartree multipole update                   :        0.003 s           0.003 s
  | Hartree multipole summation                :        0.013 s           0.013 s
  | Integration                                :        0.046 s           0.046 s
  | Solution of K.-S. eqns.                    :        0.002 s           0.002 s
  | Total energy evaluation                    :        0.000 s           0.000 s

  Partial memory accounting:
  | Current value for overall tracked memory usage:
  |   Minimum:        0.034 MB (on task 3)
  |   Maximum:        0.050 MB (on task 0)
  |   Average:        0.041 MB
  | Peak value for overall tracked memory usage:
  |   Minimum:        0.342 MB (on task 3 after allocating wave)
  |   Maximum:        0.395 MB (on task 0 after allocating wave)
  |   Average:        0.367 MB
  | Largest tracked array allocation so far:
  |   Minimum:        0.216 MB (all_coords on task 1)
  |   Maximum:        0.245 MB (all_coords on task 0)
  |   Average:        0.230 MB
  Note:  These values currently only include a subset of arrays which are explicitly tracked.
  The "true" memory usage will be greater.
------------------------------------------------------------

------------------------------------------------------------
          Begin self-consistency iteration #    7

  Date     :  20210824, Time     :  163737.596
------------------------------------------------------------
  Pulay mixing of updated and previous charge densities.
  Renormalizing the density to the exact electron count on the 3D integration grid.
  | Formal number of electrons (from input files) :      16.0000000000
  | Integrated number of electrons on 3D grid     :      16.0000000000
  | Charge integration error                      :       0.0000000000
  | Normalization factor for density and gradient :       1.0000000000

  Evaluating partitioned Hartree potential by multipole expansion.
  | Original multipole sum: apparent total charge =  -0.982587E-13
  | Sum of charges compensated after spline to logarithmic grids =   0.193977E-07
  | Analytical far-field extrapolation by fixed multipoles:
  | Hartree multipole sum: apparent total charge =  -0.982352E-13
  Summing up the Hartree potential.
  Time summed over all CPUs for potential: real work        0.033 s, elapsed        0.050 s
  | RMS charge density error from multipole expansion :   0.751376E-03

  Integrating Hamiltonian matrix: batch-based integration.
  Time summed over all CPUs for integration: real work        0.124 s, elapsed        0.187 s => Consider using load balancing!

  Updating Kohn-Sham eigenvalues and eigenvectors using ELSI and the ELPA eigensolver.
  Starting ELPA eigensolver
  Finished transformation to standard eigenproblem
  | Time :     0.000 s
  Finished solving standard eigenproblem
  | Time :     0.001 s
  Finished back-transformation of eigenvectors
  | Time :     0.000 s
  Starting ELPA eigensolver
  Finished transformation to standard eigenproblem
  | Time :     0.000 s
  Finished solving standard eigenproblem
  | Time :     0.000 s
  Finished back-transformation of eigenvectors
  | Time :     0.000 s

  Obtaining occupation numbers and chemical potential using ELSI.
  | Chemical potential (Fermi level):    -8.23728581 eV
  Current spin moment of the entire structure :
  | N = N_up - N_down :    2.00
  | S                 :    1.00
  | J                 :    3.00

  Highest occupied state (VBM) at     -8.90323329 eV
  | Occupation number:      1.00000000
  | Spin channel:        2

  Lowest unoccupied state (CBM) at    -7.49745213 eV
  | Occupation number:      0.00000000
  | Spin channel:        2

  Overall HOMO-LUMO gap:      1.40578116 eV.

  Total energy components:
  | Sum of eigenvalues            :         -82.41323142 Ha       -2242.57812798 eV
  | XC energy correction          :         -16.60264692 Ha        -451.78100910 eV
  | XC potential correction       :          21.32665779 Ha         580.32788536 eV
  | Free-atom electrostatic energy:         -72.81785571 Ha       -1981.47467025 eV
  | Hartree energy correction     :           0.24911098 Ha           6.77865464 eV
  | Entropy correction            :           0.00000000 Ha           0.00000000 eV
  | ---------------------------
  | Total energy                  :        -150.25796528 Ha       -4088.72726734 eV
  | Total energy, T -> 0          :        -150.25796528 Ha       -4088.72726734 eV  <-- do not rely on this value for anything but (periodic) metals
  | Electronic free energy        :        -150.25796528 Ha       -4088.72726734 eV

  Derived energy quantities:
  | Kinetic energy                :         149.50774239 Ha        4068.31266390 eV
  | Electrostatic energy          :        -283.16306075 Ha       -7705.25892214 eV
  | Energy correction for multipole
  | error in Hartree potential    :          -0.00018712 Ha          -0.00509173 eV
  | Sum of eigenvalues per atom                           :       -1121.28906399 eV
  | Total energy (T->0) per atom                          :       -2044.36363367 eV  <-- do not rely on this value for anything but (periodic) metals
  | Electronic free energy per atom                       :       -2044.36363367 eV

  Self-consistency convergence accuracy:
  | Change of charge/spin density :  0.1415E-01  0.2565E-02
  | Change of sum of eigenvalues  :  0.8318E+00 eV
  | Change of total energy        :  0.1633E-02 eV

  Evaluating new KS density.
  Integration grid: deviation in total charge (<rho> - N_e) =   1.776357E-14
  | <rho_up-rho_dn> = N_up-N_dn =      2.0000; <|rho_up-rho_dn|> =      2.0427
  End self-consistency iteration #     7       :  max(cpu_time)    wall_clock(cpu1)
  | Time for this iteration                    :        0.107 s           0.107 s
  | Charge density update                      :        0.033 s           0.033 s
  | Density mixing                             :        0.009 s           0.008 s
  | Hartree multipole update                   :        0.004 s           0.004 s
  | Hartree multipole summation                :        0.013 s           0.013 s
  | Integration                                :        0.047 s           0.047 s
  | Solution of K.-S. eqns.                    :        0.002 s           0.002 s
  | Total energy evaluation                    :        0.000 s           0.000 s

  Partial memory accounting:
  | Current value for overall tracked memory usage:
  |   Minimum:        0.034 MB (on task 3)
  |   Maximum:        0.050 MB (on task 0)
  |   Average:        0.041 MB
  | Peak value for overall tracked memory usage:
  |   Minimum:        0.342 MB (on task 3 after allocating wave)
  |   Maximum:        0.395 MB (on task 0 after allocating wave)
  |   Average:        0.367 MB
  | Largest tracked array allocation so far:
  |   Minimum:        0.216 MB (all_coords on task 1)
  |   Maximum:        0.245 MB (all_coords on task 0)
  |   Average:        0.230 MB
  Note:  These values currently only include a subset of arrays which are explicitly tracked.
  The "true" memory usage will be greater.
------------------------------------------------------------

------------------------------------------------------------
          Begin self-consistency iteration #    8

  Date     :  20210824, Time     :  163737.703
------------------------------------------------------------
  Pulay mixing of updated and previous charge densities.
  Renormalizing the density to the exact electron count on the 3D integration grid.
  | Formal number of electrons (from input files) :      16.0000000000
  | Integrated number of electrons on 3D grid     :      16.0000000000
  | Charge integration error                      :       0.0000000000
  | Normalization factor for density and gradient :       1.0000000000

  Evaluating partitioned Hartree potential by multipole expansion.
  | Original multipole sum: apparent total charge =   0.533947E-14
  | Sum of charges compensated after spline to logarithmic grids =   0.249206E-07
[...]
  | Charge density & force component update    :        0.087 s           0.086 s
  | Density mixing                             :        0.004 s           0.004 s
  | Hartree multipole update                   :        0.002 s           0.002 s
  | Hartree multipole summation                :        0.007 s           0.008 s
  | Integration                                :        0.026 s           0.026 s
  | Solution of K.-S. eqns.                    :        0.001 s           0.001 s
  | Total energy evaluation                    :        0.000 s           0.001 s

  Partial memory accounting:
  | Current value for overall tracked memory usage:
  |   Minimum:        0.038 MB (on task 3)
  |   Maximum:        0.061 MB (on task 0)
  |   Average:        0.048 MB
  | Peak value for overall tracked memory usage:
  |   Minimum:        0.734 MB (on task 3 after allocating hessian_basis_wave)
  |   Maximum:        0.757 MB (on task 0 after allocating hessian_basis_wave)
  |   Average:        0.744 MB
  | Largest tracked array allocation so far:
  |   Minimum:        0.348 MB (hessian_basis_wave on task 0)
  |   Maximum:        0.348 MB (hessian_basis_wave on task 0)
  |   Average:        0.348 MB
  Note:  These values currently only include a subset of arrays which are explicitly tracked.
  The "true" memory usage will be greater.
------------------------------------------------------------

------------------------------------------------------------
          Begin self-consistency iteration #    7

  Date     :  20210824, Time     :  163747.792
------------------------------------------------------------
  Pulay mixing of updated and previous charge densities.
  Renormalizing the density to the exact electron count on the 3D integration grid.
  | Formal number of electrons (from input files) :      16.0000000000
  | Integrated number of electrons on 3D grid     :      16.0000000000
  | Charge integration error                      :      -0.0000000000
  | Normalization factor for density and gradient :       1.0000000000

  Evaluating partitioned Hartree potential by multipole expansion.
  | Original multipole sum: apparent total charge =  -0.199654E-13
  | Sum of charges compensated after spline to logarithmic grids =   0.251261E-06
  | Analytical far-field extrapolation by fixed multipoles:
  | Hartree multipole sum: apparent total charge =  -0.199457E-13
  Summing up the Hartree potential.
  Time summed over all CPUs for potential: real work        0.087 s, elapsed        0.090 s
  | RMS charge density error from multipole expansion :   0.198617E-02

  Integrating Hamiltonian matrix: batch-based integration.
  Time summed over all CPUs for integration: real work        0.102 s, elapsed        0.105 s

  Updating Kohn-Sham eigenvalues and eigenvectors using ELSI and the ELPA eigensolver.
  Starting ELPA eigensolver
  Finished transformation to standard eigenproblem
  | Time :     0.000 s
  Finished solving standard eigenproblem
  | Time :     0.000 s
  Finished back-transformation of eigenvectors
  | Time :     0.000 s
  Starting ELPA eigensolver
  Finished transformation to standard eigenproblem
  | Time :     0.000 s
  Finished solving standard eigenproblem
  | Time :     0.000 s
  Finished back-transformation of eigenvectors
  | Time :     0.000 s

  Obtaining occupation numbers and chemical potential using ELSI.
  | Chemical potential (Fermi level):    -5.44308549 eV
  Current spin moment of the entire structure :
  | N = N_up - N_down :    2.00
  | S                 :    1.00
  | J                 :    3.00

  Highest occupied state (VBM) at     -6.85939613 eV
  | Occupation number:      1.00000000
  | Spin channel:        1

  Lowest unoccupied state (CBM) at    -4.56379425 eV
  | Occupation number:      0.00000000
  | Spin channel:        2

  Overall HOMO-LUMO gap:      2.29560188 eV.

  Total energy components:
  | Sum of eigenvalues            :         -82.76680958 Ha       -2252.19947926 eV
  | XC energy correction          :         -16.89707175 Ha        -459.79271622 eV
  | XC potential correction       :          21.72437125 Ha         591.15021909 eV
  | Free-atom electrostatic energy:         -72.00070548 Ha       -1959.23888102 eV
  | Hartree energy correction     :          -0.48749506 Ha         -13.26541549 eV
  | Entropy correction            :           0.00000000 Ha           0.00000000 eV
  | ---------------------------
  | Total energy                  :        -150.42771061 Ha       -4093.34627291 eV
  | Total energy, T -> 0          :        -150.42771061 Ha       -4093.34627291 eV  <-- do not rely on this value for anything but (periodic) metals
  | Electronic free energy        :        -150.42771061 Ha       -4093.34627291 eV

  Derived energy quantities:
  | Kinetic energy                :         150.21427513 Ha        4087.53839800 eV
  | Electrostatic energy          :        -283.74491400 Ha       -7721.09195469 eV
  | Energy correction for multipole
  | error in Hartree potential    :          -0.00108233 Ha          -0.02945170 eV
  | Sum of eigenvalues per atom                           :       -1126.09973963 eV
  | Total energy (T->0) per atom                          :       -2046.67313645 eV  <-- do not rely on this value for anything but (periodic) metals
  | Electronic free energy per atom                       :       -2046.67313645 eV

  atomic forces [eV/Ang]:
  -----------------------
  atom #    1
   Hellmann-Feynman              :  0.791619E-13  0.254545E-12 -0.179338E+02
   Ionic forces                  :  0.000000E+00  0.000000E+00  0.000000E+00
   Multipole                     : -0.220304E-12 -0.134892E-13 -0.642152E-01
   Pulay + GGA                   : -0.151288E-11  0.371085E-12  0.179967E+02
   ----------------------------------------------------------------
   Total forces(   1)            : -0.165403E-11  0.612140E-12 -0.136715E-02
  atom #    2
   Hellmann-Feynman              :  0.135266E-12 -0.546201E-12  0.179338E+02
   Ionic forces                  :  0.000000E+00  0.000000E+00  0.000000E+00
   Multipole                     :  0.132132E-14  0.211774E-13  0.642152E-01
   Pulay + GGA                   :  0.139328E-10  0.345394E-12 -0.179967E+02
   ----------------------------------------------------------------
   Total forces(   2)            :  0.140694E-10 -0.179630E-12  0.136715E-02


  Self-consistency convergence accuracy:
  | Change of charge/spin density :  0.1687E-06  0.8809E-07
  | Change of sum of eigenvalues  :  0.4774E-04 eV
  | Change of total energy        :  0.1663E-09 eV
  | Change of forces              :  0.1800E+02 eV/A

  Writing Kohn-Sham eigenvalues.

  Spin-up eigenvalues:

  State    Occupation    Eigenvalue [Ha]    Eigenvalue [eV]
      1       1.00000         -18.932365         -515.17588
      2       1.00000         -18.932307         -515.17428
      3       1.00000          -1.199138          -32.63020
      4       1.00000          -0.756321          -20.58054
      5       1.00000          -0.493906          -13.43986
      6       1.00000          -0.491719          -13.38034
      7       1.00000          -0.491719          -13.38034
      8       1.00000          -0.252078           -6.85940
      9       1.00000          -0.252078           -6.85940
     10       0.00000           0.075944            2.06653
     11       0.00000           0.240609            6.54730
     12       0.00000           0.240609            6.54730
     13       0.00000           0.249509            6.78948
     14       0.00000           0.395890           10.77272

  Spin-down eigenvalues:

  State    Occupation    Eigenvalue [Ha]    Eigenvalue [eV]
      1       1.00000         -18.905986         -514.45807
      2       1.00000         -18.905930         -514.45654
      3       1.00000          -1.155381          -31.43952
      4       1.00000          -0.690633          -18.79308
      5       1.00000          -0.460924          -12.54237
      6       1.00000          -0.423162          -11.51483
      7       1.00000          -0.423162          -11.51483
      8       0.00000          -0.167716           -4.56379
      9       0.00000          -0.167716           -4.56379
     10       0.00000           0.099478            2.70693
     11       0.00000           0.268406            7.30371
     12       0.00000           0.268406            7.30371
     13       0.00000           0.278907            7.58944
     14       0.00000           0.404239           10.99991

  Current spin moment of the entire structure :
  | N = N_up - N_down :    2.00
  | S                 :    1.00
  | J                 :    3.00

  Highest occupied state (VBM) at     -6.85939613 eV
  | Occupation number:      1.00000000
  | Spin channel:        1

  Lowest unoccupied state (CBM) at    -4.56379425 eV
  | Occupation number:      0.00000000
  | Spin channel:        2

  Overall HOMO-LUMO gap:      2.29560188 eV.

  Self-consistency cycle converged.

  End self-consistency iteration #     7       :  max(cpu_time)    wall_clock(cpu1)
  | Time for this iteration                    :        0.058 s           0.057 s
  | Charge density & force component update    :        0.000 s           0.000 s
  | Density mixing                             :        0.004 s           0.004 s
  | Hartree multipole update                   :        0.002 s           0.002 s
  | Hartree multipole summation                :        0.023 s           0.023 s
  | Integration                                :        0.027 s           0.027 s
  | Solution of K.-S. eqns.                    :        0.001 s           0.001 s
  | Total energy evaluation                    :        0.000 s           0.000 s

  Partial memory accounting:
  | Current value for overall tracked memory usage:
  |   Minimum:        0.038 MB (on task 3)
  |   Maximum:        0.061 MB (on task 0)
  |   Average:        0.048 MB
  | Peak value for overall tracked memory usage:
  |   Minimum:        0.734 MB (on task 3 after allocating hessian_basis_wave)
  |   Maximum:        0.757 MB (on task 0 after allocating hessian_basis_wave)
  |   Average:        0.744 MB
  | Largest tracked array allocation so far:
  |   Minimum:        0.348 MB (hessian_basis_wave on task 0)
  |   Maximum:        0.348 MB (hessian_basis_wave on task 0)
  |   Average:        0.348 MB
  Note:  These values currently only include a subset of arrays which are explicitly tracked.
  The "true" memory usage will be greater.
------------------------------------------------------------
  Removing unitary transformations (pure translations, rotations) from forces on atoms.
  Atomic forces before filtering:
  | Net force on center of mass :   0.124154E-10  0.432510E-12  0.215033E-10 eV/A
  | Net torque on center of mass:   0.483414E-12  0.959991E-11 -0.119471E-48 eV
  Atomic forces after filtering:
  | Net force on center of mass :   0.203662E-26  0.565758E-28  0.000000E+00 eV/A
  | Net torque on center of mass:  -0.743004E-28 -0.441857E-42  0.200984E-67 eV

  Energy and forces in a compact form:
  | Total energy uncorrected      :         -0.409334627290846E+04 eV
  | Total energy corrected        :         -0.409334627290846E+04 eV  <-- do not rely on this value for anything but (periodic) metals
  | Electronic free energy        :         -0.409334627290846E+04 eV
  Total atomic forces (unitary forces cleaned) [eV/Ang]:
  |    1          0.101831005788927E-26         -0.325593783481834E-28         -0.136714556839718E-02
  |    2          0.101831005788927E-26          0.891351901442145E-28          0.136714556839718E-02

  ------------------------------------ 
  Start decomposition of the XC Energy 
  ------------------------------------ 
  X and C from original XC functional choice 
  Hartree-Fock Energy :          0.000000000 Ha              0.000000000 eV
  X Energy            :        -16.368962742 Ha           -445.422139025 eV
  C Energy            :         -0.528109005 Ha            -14.370577193 eV
  Total XC Energy     :        -16.897071747 Ha           -459.792716219 eV
  ------------------------------------ 
  LDA X and C from self-consistent density 
  X Energy LDA        :        -14.862582818 Ha           -404.431455711 eV
  C Energy LDA        :         -1.104135509 Ha            -30.045055874 eV
  ------------------------------------ 
  End decomposition of the XC Energy 
  ------------------------------------ 

------------------------------------------------------------
  Relaxation / MD: End force evaluation.       :  max(cpu_time)    wall_clock(cpu1)
  | Time for this force evaluation             :        0.541 s           0.541 s

------------------------------------------------------------
  Geometry optimization: Attempting to predict improved coordinates.

  Removing unitary transformations (pure translations, rotations) from forces on atoms.
  Atomic forces before filtering:
  | Net force on center of mass :   0.203662E-26  0.565758E-28  0.000000E+00 eV/A
  | Net torque on center of mass:  -0.743004E-28 -0.441857E-42  0.200984E-67 eV
  Atomic forces after filtering:
  | Net force on center of mass :   0.353847E-42  0.134046E-43  0.000000E+00 eV/A
  | Net torque on center of mass:   0.152208E-44 -0.996237E-43  0.123805E-80 eV
  Net remaining forces (excluding translations, rotations) in present geometry:
  || Forces on atoms   || =   0.136715E-02 eV/A.
  Maximum force component is  0.136715E-02 eV/A.
  Present geometry is converged.

------------------------------------------------------------
  Final atomic structure:
                         x [A]             y [A]             z [A]
            atom         0.00000000       -0.00000000        0.33945176  O
            atom         0.00000000        0.00000000        1.56054824  O
------------------------------------------------------------

------------------------------------------------------------------------------
  Final output of selected total energy values:

  The following output summarizes some interesting total energy values
  at the end of a run (AFTER all relaxation, molecular dynamics, etc.).

  | Total energy of the DFT / Hartree-Fock s.c.f. calculation      :          -4093.346272908 eV
  | Final zero-broadening corrected energy (caution - metals only) :          -4093.346272908 eV
  | For reference only, the value of 1 Hartree used in FHI-aims is :             27.211384500 eV

  Before relying on these values, please be sure to understand exactly which
  total energy value is referred to by a given number. Different objects may
  all carry the same name 'total energy'. Definitions:

  Total energy of the DFT / Hartree-Fock s.c.f. calculation:
  | Note that this energy does not include ANY quantities calculated after the
  | s.c.f. cycle, in particular not ANY RPA, MP2, etc. many-body perturbation terms.

  Final zero-broadening corrected energy:
  | For metallic systems only, a broadening of the occupation numbers at the Fermi
  | level can be extrapolated back to zero broadening by an electron-gas inspired
  | formula. For all systems that are not real metals, this value can be
  | meaningless and should be avoided.

------------------------------------------------------------------------------
  Methods described in the following list of references were used in this FHI-aims run.
  If you publish the results, please make sure to cite these reference if they apply.
  FHI-aims is an academic code, and for our developers (often, Ph.D. students
  and postdocs), scientific credit in the community is essential.
  Thank you for helping us!

  For any use of FHI-aims, please cite:

    Volker Blum, Ralf Gehrke, Felix Hanke, Paula Havu, Ville Havu,
    Xinguo Ren, Karsten Reuter, and Matthias Scheffler
    'Ab initio molecular simulations with numeric atom-centered orbitals'
    Computer Physics Communications 180, 2175-2196 (2009)
    http://dx.doi.org/10.1016/j.cpc.2009.06.022


  The ELSI infrastructure was used in your run to solve the Kohn-Sham electronic structure.
  Please check out http://elsi-interchange.org to learn more.
  If scalability is important for your project, please acknowledge ELSI by citing:

    V. W-z. Yu, F. Corsetti, A. Garcia, W. P. Huhn, M. Jacquelin, W. Jia,
    B. Lange, L. Lin, J. Lu, W. Mi, A. Seifitokaldani, A. Vazquez-Mayagoitia,
    C. Yang, H. Yang, and V. Blum
    'ELSI: A unified software interface for Kohn-Sham electronic structure solvers'
    Computer Physics Communications 222, 267-285 (2018).
    http://dx.doi.org/10.1016/j.cpc.2017.09.007


  For the real-space grid partitioning and parallelization used in this calculation, please cite:

    Ville Havu, Volker Blum, Paula Havu, and Matthias Scheffler,
    'Efficient O(N) integration for all-electron electronic structure calculation'
    'using numerically tabulated basis functions'
    Journal of Computational Physics 228, 8367-8379 (2009).
    http://dx.doi.org/10.1016/j.jcp.2009.08.008

  Of course, there are many other important community references, e.g., those cited in the
  above references. Our list is limited to references that describe implementations in the
  FHI-aims code. The reason is purely practical (length of this list) - please credit others as well.

------------------------------------------------------------
          Leaving FHI-aims.
          Date     :  20210824, Time     :  163747.860

          Computational steps:
          | Number of self-consistency cycles          :          100
          | Number of SCF (re)initializations          :            9
          | Number of relaxation steps                 :            8

          Detailed time accounting                     :  max(cpu_time)    wall_clock(cpu1)
          | Total time                                 :       11.298 s          11.299 s
          | Preparation time                           :        0.225 s           0.225 s
          | Boundary condition initalization           :        0.001 s           0.001 s
          | Grid partitioning                          :        0.153 s           0.153 s
          | Preloading free-atom quantities on grid    :        0.101 s           0.102 s
          | Free-atom superposition energy             :        0.099 s           0.100 s
          | Total time for integrations                :        4.214 s           4.204 s
          | Total time for solution of K.-S. equations :        0.180 s           0.191 s
          | Total time for EV reorthonormalization     :        0.004 s           0.004 s
          | Total time for density & force components  :        3.752 s           3.754 s
          | Total time for mixing                      :        0.658 s           0.657 s
          | Total time for Hartree multipole update    :        0.300 s           0.296 s
          | Total time for Hartree multipole sum       :        1.360 s           1.360 s
          | Total time for total energy evaluation     :        0.025 s           0.019 s
          | Total time for scaled ZORA corrections     :        0.000 s           0.000 s

          Partial memory accounting:
          | Residual value for overall tracked memory usage across tasks:     0.000000 MB (should be 0.000000 MB)
          | Peak values for overall tracked memory usage:
          |   Minimum:        0.734 MB (on task 3 after allocating hessian_basis_wave)
          |   Maximum:        0.757 MB (on task 0 after allocating hessian_basis_wave)
          |   Average:        0.744 MB
          | Largest tracked array allocation:
          |   Minimum:        0.348 MB (hessian_basis_wave on task 0)
          |   Maximum:        0.348 MB (hessian_basis_wave on task 0)
          |   Average:        0.348 MB
          Note:  These values currently only include a subset of arrays which are explicitly tracked.
          The "true" memory usage will be greater.

          Have a nice day.
------------------------------------------------------------
