------------------------------------------------------------
          Invoking FHI-aims ...

          When using FHI-aims, please cite the following reference:

            Volker Blum, Ralf Gehrke, Felix Hanke, Paula Havu,
            Ville Havu, Xinguo Ren, Karsten Reuter, and Matthias Scheffler,
            'Ab Initio Molecular Simulations with Numeric Atom-Centered Orbitals',
            Computer Physics Communications 180, 2175-2196 (2009)

          In addition, many other developments in FHI-aims are likely important for
          your particular application. A partial list of references is given at the end of
          this file. Thank you for giving credit to the authors of these developments.

          For any questions about FHI-aims, please visit our slack channel at

            https://fhi-aims.slack.com

          and our main development and support site at

            https://aims-git.rz-berlin.mpg.de .

          The latter site, in particular, has a wiki to collect information, as well
          as an issue tracker to log discussions, suggest improvements, and report issues
          or bugs. https://aims-git.rz-berlin.mpg.de is also the main development site
          of the project and all new and updated code versions can be obtained there.
          Please send an email to aims-coordinators@fhi-berlin.mpg.de and we will add
          you to these sites. They are for you and everyone is welcome there.

------------------------------------------------------------



  Date     :  20210824, Time     :  144841.412
  Time zero on CPU 1             :   0.142730000000000E-01  s.
  Internal wall clock time zero  :           399048521.412  s.

  FHI-aims created a unique identifier for this run for later identification
  aims_uuid : 67DF72A8-231F-424E-AFCD-5FA85381B72E

  Build configuration of the current instance of FHI-aims
  -------------------------------------------------------
  FHI-aims version      : 210226
  Commit number         : GITDIR-NOTFOUND
  CMake host system     : Linux-3.10.0-514.6.1.el7.x86_64
  CMake version         : 3.8.0-rc1
  Fortran compiler      : /apps/intel2018/compilers_and_libraries/linux/mpi/intel64/bin/mpiifort (Intel) version 18.0.5.20180823
  Fortran compiler flags: -fc=ifort -O3 -ip -fp-model precise -xCORE-AVX2 -qopt-zmm-usage=high
  C compiler            : /apps/intel2018/compilers_and_libraries_2018.5.274/linux/mpi/intel64/bin/mpiicc (Intel) version 18.0.5.20180823
  C compiler flags      : -O3 -ip -fp-model precise -std=gnu99 -xCORE-AVX2 -qopt-zmm-usage=high
  ELPA2 kernel          : AVX2
  Using MPI
  Using ScaLAPACK
  Using LibXC
  Using i-PI
  Using RLSY
  Linking against: /apps/intel2018/compilers_and_libraries_2018.5.274/linux/mkl/lib/intel64_lin/libmkl_intel_lp64.so
                   /apps/intel2018/compilers_and_libraries_2018.5.274/linux/mkl/lib/intel64_lin/libmkl_sequential.so
                   /apps/intel2018/compilers_and_libraries_2018.5.274/linux/mkl/lib/intel64_lin/libmkl_core.so
                   /apps/intel2018/compilers_and_libraries_2018.5.274/linux/mkl/lib/intel64_lin/libmkl_blacs_intelmpi_lp64.so
                   /apps/intel2018/compilers_and_libraries_2018.5.274/linux/mkl/lib/intel64_lin/libmkl_scalapack_lp64.so

  Using        4 parallel tasks.
  Task        0 on host mercury reporting.
  Task        1 on host mercury reporting.
  Task        2 on host mercury reporting.
  Task        3 on host mercury reporting.

  Performing system and environment tests:
  | Environment variable OMP_NUM_THREADS correctly set to 1.
  | Checking for ScaLAPACK...
  | Testing pdtran()...
  | All pdtran() tests passed.

  Obtaining array dimensions for all initial allocations:
  
  -----------------------------------------------------------------------
  Parsing control.in (first pass over file, find array dimensions only).
  The contents of control.in will be repeated verbatim below
  unless switched off by setting 'verbatim_writeout .false.' .
  in the first line of control.in .
  -----------------------------------------------------------------------
  
  xc                                 hse06 0.11
  hse_unit                           bohr
  relativistic                       atomic_zora  scalar
  relax_geometry                     bfgs         5e-3
  spin                               none
  
  ################################################################################
  #
  #  FHI-aims code project
  #  Volker Blum, 2017
  #
  #  Suggested "intermediate" defaults for H atom (to be pasted into control.in file)
  #
  ################################################################################
    species        H
  #     global species definitions
      nucleus             1
      mass                1.00794
  #
      l_hartree           6
  #
      cut_pot             4.0  2.0  1.0
      basis_dep_cutoff    1e-4
  #
      radial_base         24 7.0
      radial_multiplier   2
      angular_grids       specified
        division   0.1930   50
        division   0.3175  110
        division   0.4293  194
        division   0.5066  302
        division   0.5626  434
  #      division   0.5922  590
  #      division   0.6227  974
  #      division   0.6868 1202
  #      outer_grid  770
        outer_grid  434
  ################################################################################
  #
  #  Definition of "minimal" basis
  #
  ################################################################################
  #     valence basis states
      valence      1  s   1.
  #     ion occupancy
      ion_occ      1  s   0.5
  ################################################################################
  #
  #  Suggested additional basis functions. For production calculations,
  #  uncomment them one after another (the most important basis functions are
  #  listed first).
  #
  #  Basis constructed for dimers: 0.5 A, 0.7 A, 1.0 A, 1.5 A, 2.5 A
  #
  ################################################################################
  #  "First tier" - improvements: -1014.90 meV to -62.69 meV
       hydro 2 s 2.1
       hydro 2 p 3.5
  #  "Second tier" - improvements: -12.89 meV to -1.83 meV
       hydro 1 s 0.85
  #     hydro 2 p 3.7
  #     hydro 2 s 1.2
    for_aux    hydro 3 d 7
  #  "Third tier" - improvements: -0.25 meV to -0.12 meV
  #     hydro 4 f 11.2
  #     hydro 3 p 4.8
  #     hydro 4 d 9
  #     hydro 3 s 3.2
  ################################################################################
  #
  #  FHI-aims code project
  #  Volker Blum, 2017
  #
  #  Suggested "intermediate" defaults for O atom (to be pasted into control.in file)
  #
  ################################################################################
    species        O
  #     global species definitions
      nucleus             8
      mass                15.9994
  #
      l_hartree           6
  #
      cut_pot             4.0  2.0  1.0
      basis_dep_cutoff    1e-4
  #
      radial_base         36 7.0
      radial_multiplier   2
       angular_grids specified
        division   0.1817   50
        division   0.3417  110
        division   0.4949  194
        division   0.6251  302
        division   0.8014  434
  #      division   0.8507  590
  #      division   0.8762  770
  #      division   0.9023  974
  #      division   1.2339 1202
  #      outer_grid 974
        outer_grid  434
  ################################################################################
  #
  #  Definition of "minimal" basis
  #
  ################################################################################
  #     valence basis states
      valence      2  s   2.
      valence      2  p   4.
  #     ion occupancy
      ion_occ      2  s   1.
      ion_occ      2  p   3.
  ################################################################################
  #
  #  Suggested additional basis functions. For production calculations,
  #  uncomment them one after another (the most important basis functions are
  #  listed first).
  #
  #  Constructed for dimers: 1.0 A, 1.208 A, 1.5 A, 2.0 A, 3.0 A
  #
  ################################################################################
  #  "First tier" - improvements: -699.05 meV to -159.38 meV
       hydro 2 p 1.8
       hydro 3 d 7.6
       hydro 3 s 6.4
  #  "Second tier" - improvements: -49.91 meV to -5.39 meV
       hydro 4 f 11.6
  #     hydro 3 p 6.2
  #     hydro 3 d 5.6
    for_aux    hydro 5 g 17.6
  #     hydro 1 s 0.75
  #  "Third tier" - improvements: -2.83 meV to -0.50 meV
  #     ionic 2 p auto
  #     hydro 4 f 10.8
  #     hydro 4 d 4.7
  #     hydro 2 s 6.8
  #  "Fourth tier" - improvements: -0.40 meV to -0.12 meV
  #     hydro 3 p 5
  #     hydro 3 s 3.3
  #     hydro 5 g 15.6
  #     hydro 4 f 17.6
  #     hydro 4 d 14
  # Further basis functions - -0.08 meV and below
  #     hydro 3 s 2.1
  #     hydro 4 d 11.6
  #     hydro 3 p 16
  #     hydro 2 s 17.2
  
  -----------------------------------------------------------------------
  Completed first pass over input file control.in .
  -----------------------------------------------------------------------
  
  
  -----------------------------------------------------------------------
  Parsing geometry.in (first pass over file, find array dimensions only).
  The contents of geometry.in will be repeated verbatim below
  unless switched off by setting 'verbatim_writeout .false.' .
  in the first line of geometry.in .
  -----------------------------------------------------------------------
  
  #
  # This is the geometry file that corresponds to the current relaxation step.
  # If you do not want this file to be written, set the "write_restart_geometry" flag to .false.
  #  aims_uuid : 58D2A856-F40D-4834-A95A-813CDB1D1D46
  #
  atom      -0.00000000     -0.07320102     -0.00000000 O
  atom       0.76731112     -0.67039949     -0.00000000 H
  atom      -0.76731112     -0.67039949     -0.00000000 H
  #
  # What follows is the current estimated Hessian matrix constructed by the BFGS algorithm.
  # This is NOT the true Hessian matrix of the system.
  # If you do not want this information here, switch it off using the "hessian_to_restart_geometry" keyword.
  #
  trust_radius             0.2000000030
  hessian_file
  
  -----------------------------------------------------------------------
  Completed first pass over input file geometry.in .
  -----------------------------------------------------------------------
  

  Basic array size parameters:
  | Number of species                 :        2
  | Number of atoms                   :        3
  | Max. basis fn. angular momentum   :        4
  | Max. atomic/ionic basis occupied n:        2
  | Max. number of basis fn. types    :        2
  | Max. radial fns per species/type  :        5
  | Max. logarithmic grid size        :     1301
  | Max. radial integration grid size :       73
  | Max. angular integration grid size:      434
  | Max. angular grid division number :        8
  | Radial grid for Hartree potential :     1301
  | Number of spin channels           :        1

------------------------------------------------------------
          Reading file control.in.
------------------------------------------------------------

  XC: Using HSE-functional with OMEGA =  0.110000E+00 <units>.
  XC: For the actual units (bohr^-1 or Angstrom^-1), see below.
  hse_unit: Unit for the HSE06 hybrid functional screening parameter set to bohr^(-1).
  Scalar relativistic treatment of kinetic energy: on-site free-atom approximation to ZORA.
  Geometry relaxation: Modified BFGS - TRM (trust radius method) for lattice optimization.
  Convergence accuracy for geometry relaxation: Maximum force <   0.500000E-02 eV/A.
  Spin treatment: No spin polarisation.
 
  Reading configuration options for species H                   .
  | Found nuclear charge :   1.0000
  | Found atomic mass :    1.00794000000000      amu
  | Found l_max for Hartree potential  :   6
  | Found cutoff potl. onset [A], width [A], scale factor :    4.00000    2.00000    1.00000
  | Threshold for basis-dependent cutoff potential is   0.100000E-03
  | Found data for basic radial integration grid :    24 points, outermost radius =    7.000 A
  | Found multiplier for basic radial grid :   2
  | Found angular grid specification: user-specified.
  | Specified grid contains     6 separate shells.
  | Check grid settings after all constraints further below.
  | Found free-atom valence shell :  1 s   1.000
  | No ionic wave fns used. Skipping ion_occ.
  | Found hydrogenic basis function :  2 s   2.100
  | Found hydrogenic basis function :  2 p   3.500
  | Found hydrogenic basis function :  1 s   0.850
  | Found hydrogenic extended basis function :  3 d   7.000
  Species H                   : Missing cutoff potential type.
  Defaulting to exp(1/x)/(1-x)^2 type cutoff potential.
  Species H : No 'logarithmic' tag. Using default grid for free atom:
  | Default logarithmic grid data [bohr] : 0.1000E-03 0.1000E+03 0.1012E+01
  Species H : On-site basis accuracy parameter (for Gram-Schmidt orthonormalisation) not specified.
  Using default value basis_acc =  0.1000000E-03.
  Species H                   : Using default innermost maximum threshold i_radial=  2 for radial functions.
  Species H                   : Default cutoff onset for free atom density etc. : 0.40000000E+01 AA.
  Species H                   : Basic radial grid will be enhanced according to radial_multiplier =   2, to contain    49 grid points.
 
  Reading configuration options for species O                   .
  | Found nuclear charge :   8.0000
  | Found atomic mass :    15.9994000000000      amu
  | Found l_max for Hartree potential  :   6
  | Found cutoff potl. onset [A], width [A], scale factor :    4.00000    2.00000    1.00000
  | Threshold for basis-dependent cutoff potential is   0.100000E-03
  | Found data for basic radial integration grid :    36 points, outermost radius =    7.000 A
  | Found multiplier for basic radial grid :   2
  | Found angular grid specification: user-specified.
  | Specified grid contains     6 separate shells.
  | Check grid settings after all constraints further below.
  | Found free-atom valence shell :  2 s   2.000
  | Found free-atom valence shell :  2 p   4.000
  | No ionic wave fns used. Skipping ion_occ.
  | No ionic wave fns used. Skipping ion_occ.
  | Found hydrogenic basis function :  2 p   1.800
  | Found hydrogenic basis function :  3 d   7.600
  | Found hydrogenic basis function :  3 s   6.400
  | Found hydrogenic basis function :  4 f  11.600
  | Found hydrogenic extended basis function :  5 g  17.600
  Species O                   : Missing cutoff potential type.
  Defaulting to exp(1/x)/(1-x)^2 type cutoff potential.
  Species O : No 'logarithmic' tag. Using default grid for free atom:
  | Default logarithmic grid data [bohr] : 0.1000E-03 0.1000E+03 0.1012E+01
  Species O : On-site basis accuracy parameter (for Gram-Schmidt orthonormalisation) not specified.
  Using default value basis_acc =  0.1000000E-03.
  Species O                   : Using default innermost maximum threshold i_radial=  2 for radial functions.
  Species O                   : Default cutoff onset for free atom density etc. : 0.40000000E+01 AA.
  Species O                   : Basic radial grid will be enhanced according to radial_multiplier =   2, to contain    73 grid points.
 
  Finished reading input file 'control.in'.
 
------------------------------------------------------------


------------------------------------------------------------
          Reading geometry description geometry.in.
------------------------------------------------------------
 * Large trust radius value found - resetting to the current value of max_atomic_move,      0.20000000 A.
  Found keyword 'hessian_file', indicating that this is the continuation of a structure optimization.
  Verifying the existence of the file 'hessian.aims' on all processors
  | The smallest distance between any two atoms is         0.97232318 AA.
  | The first atom of this pair is atom number                      1 .
  | The second atom of this pair is atom number                     2 .
  Input structure read successfully.
  The structure contains        3 atoms,  and a total of         10.000 electrons.

  Input geometry:
  | No unit cell requested.
  | Atomic structure:
  |       Atom                x [A]            y [A]            z [A]
  |    1: Species O             0.00000000       -0.07320102        0.00000000
  |    2: Species H             0.76731112       -0.67039949        0.00000000
  |    3: Species H            -0.76731112       -0.67039949        0.00000000

 
  Finished reading input file 'control.in'.
 

------------------------------------------------------------
          Reading geometry description geometry.in.
------------------------------------------------------------
 
  Consistency checks for stacksize environment parameter are next.
 
  | Maximum stacksize for task 0: unlimited
  | Maximum stacksize for task 1: unlimited
  | Maximum stacksize for task 2: unlimited
  | Maximum stacksize for task 3: unlimited
  | Current stacksize for task 0: unlimited
  | Current stacksize for task 1: unlimited
  | Current stacksize for task 2: unlimited
  | Current stacksize for task 3: unlimited
 
  Consistency checks for the contents of control.in are next.
 
  HSE06 screening parameters: omega_HF  =      0.11000000 bohr^-1, and
                              omega_PBE =      0.11000000 bohr^-1.
  MPI_IN_PLACE appears to work with this MPI implementation.
  | Keeping use_mpi_in_place .true. (see manual).
  Explicit treatment of the Coulomb operator is needed, but the RI method is not specified.
  Coulomb operator: Defaulting to 'LVL fast' resolution of identity - RI_type = LVL_fast
  Species H: Using default value for prodbas_acc =   1.000000E-04.
  Species H: Using default value max_l_prodbas =    20.
  Species O: Using default value for prodbas_acc =   1.000000E-04.
  Species O: Using default value max_l_prodbas =    20.
  Target number of points in a grid batch is not set. Defaulting to  100
  Method for grid partitioning is not set. Defaulting to parallel hash+maxmin partitioning.
  Batch size limit is not set. Defaulting to    200
  By default, will store active basis functions for each batch.
  If in need of memory, prune_basis_once .false. can be used to disable this option.
  communication_type for Hartree potential was not specified.
  Defaulting to calc_hartree .
  Defaulting to Pulay charge density mixer.
  Pulay mixer: Number of relevant iterations not set.
  Defaulting to    8 iterations.
  Pulay mixer: Number of initial linear mixing iterations not set.
  Defaulting to    0 iterations.
  Work space size for distributed Hartree potential not set.
  Defaulting to   0.200000E+03 MB.
  Mixing parameter for charge density mixing has not been set.
  Using default: charge_mix_param =     0.0500.
  The mixing parameter will be adjusted in iteration number     2 of the first full s.c.f. cycle only.
  Algorithm-dependent basis array size parameters:
  | n_max_pulay                         :        8
  Maximum number of self-consistency iterations not provided.
  Presetting  1000 iterations.
  Presetting      1001 iterations before the initial mixing cycle
  is restarted anyway using the sc_init_iter criterion / keyword.
  Presetting a factor      1.000 between actual scf density residual
  and density convergence criterion sc_accuracy_rho below which sc_init_iter
  takes no effect.
 * No s.c.f. convergence criteria (sc_accuracy_*) were provided in control.in.
 * The run will proceed with a reasonable default guess, but please check whether.
 * the s.c.f. cycles seem to take too much or too little time.
  No maximum number of relaxation steps, defaulting to     1000
  Using explicit Hessian from geometry.in.
  No maximum energy tolerance for TRM/BFGS moves, defaulting to   0.100000E-02
  Maximum energy tolerance by which TRM/BFGS trajectory may increase over multiple steps:   0.300000E-02
  No harmonic length scale. Defaulting to   0.250000E-01 A.
  No trust radius initializer. Defaulting to   0.200000E+00 A.
 * Notice: The s.c.f. convergence criterion sc_accuracy_rho was not provided.
 * We used to stop in this case, and ask the user to provide reasonable
 * scf convergence criteria. However, this led some users to employ criteria
 * that led to extremely long run times, e.g., for simple relaxation.
 * We now preset a default value for sc_accuracy_rho if it is not set.
 * You may still wish to check if this setting is too tight or too loose for your needs.
 * Based on n_atoms, FHI-aims chose sc_accuracy_rho =  0.100000E-05 .
  Force calculation: scf convergence accuracy of forces not set.
  Defaulting to 'sc_accuracy_forces not_checked'.
  Handling of forces: Unphysical translation and rotation will be removed from forces.
  No accuracy limit for integral partition fn. given. Defaulting to  0.1000E-14.
  No threshold value for u(r) in integrations given. Defaulting to  0.1000E-05.
  No occupation type (smearing scheme) given. Defaulting to Gaussian broadening, width =  0.1000E-01 eV.
  The width will be adjusted in iteration number     2 of the first full s.c.f. cycle only.
  S.C.F. convergence parameters will be adjusted in iteration number     2 of the first full s.c.f. cycle only.
  No accuracy for occupation numbers given. Defaulting to  0.1000E-12.
  No threshold value for occupation numbers given. Defaulting to  0.0000E+00.
  No accuracy for fermi level given. Defaulting to  0.1000E-19.
  Maximum # of iterations to find E_F not set. Defaulting to  200.
  Preferred method for the eigenvalue solver ('KS_method') not specified in 'control.in'.
  Calling BLACS routine to test compilation state
  Since ScaLAPACK support is enabled, defaulting to ELPA (via ELSI).
  Will not use alltoall communication since running on < 1024 CPUs.
  Threshold for basis singularities not set.
  Default threshold for basis singularities:  0.1000E-04
  partition_type (choice of integration weights) for integrals was not specified.
  | Using a version of the partition function of Stratmann and coworkers ('stratmann_sparse').
  | At each grid point, the set of atoms used to build the partition table is smoothly restricted to
  | only those atoms whose free-atom density would be non-zero at that grid point.
  Partitioning for Hartree potential was not defined. Using partition_type for integrals.
  | Adjusted default value of keyword multip_moments_threshold to:       0.10000000E-11
  | This value may affect high angular momentum components of the Hartree potential in periodic systems.
  Threshold for auxiliary basis singularities not set.
  Default threshold for auxiliary basis singularities:  0.1000E-04
  No q(lm)/r^(l+1) cutoff set for long-range Hartree potential.
  | Using default value of  0.100000E-09 .
  | Verify using the multipole_threshold keyword.
  Defaulting to new monopole extrapolation.
  Density update method: automatic selection selected.
  Coulomb operator: Defaulting to screening threshold for four-center integrals:   0.100000E-06
  Coulomb operator: Defaulting to screening threshold for Coulomb matrix:   0.100000E-09
  Coulomb operator: Defaulting to 'LVL_fast' resolution of identity - RI_type = LVL_fast 
  No other resolution of identity version is supported for periodic boundary conditions at present.
  Coulomb operator: Defaulting to logarithmic spherical Bessel transform integrals (use_logsbt .true.).
  HSE with LVL_fast: Also defaulting to logarithmic spherical Bessel transform integrals.
  Geometry relaxation: A file "geometry.in.next_step" is written out by default after each step.
  | This file contains the geometry of the current relaxation step as well as
  | the current Hessian matrix needed to restart the relaxation algorithm.
  | If you do not want part or all of this information, use the keywords
  | "write_restart_geometry" or "hessian_to_restart_geometry" to switch the output off.
  Charge integration errors on the 3D integration grid will be compensated
  by explicit normalization and distribution of residual charges.
  Use the "compensate_multipole_errors" flag to change this behaviour.
  LVL not implemented with density matrix yet
  -> switching to transformed overlap
  LVL probably works better with logsbt
  Default to 1D ("use_logsbt") integrations for auxiliary 2-center integrals.
  Default onset of logarithmic r-grid for SBT is -38.000000000000
  Default onset of logarithmic k-grid for SBT is -25.000000000000
  Default range of logarithmic r- and k-grid for SBT is  45.000000000000
  Default number of logarithmic r- and k-grid for SBT is   4096
  * Use logSBT for radial HSE integration, too
  Default of use_2d_corr is to use the efficient 2D distribution where possible
  Set 'collect_eigenvectors' to be '.true.' for use_density_matrix .false.
 
  Consistency checks for the contents of geometry.in are next.
 
  Number of empty states per atom not set in control.in - providing a guess from actual geometry.
  | Total number of empty states used during s.c.f. cycle:        6
  If you use a very high smearing, use empty_states (per atom!) in control.in to increase this value.

  Structure-dependent array size parameters: 
  | Maximum number of distinct radial functions  :       13
  | Maximum number of basis functions            :       52
  | Number of Kohn-Sham states (occupied + empty):       11
------------------------------------------------------------
  Setting Coulomb cut-width to  1.091868692359 * rcut.
  Setting Coulomb cutting radius rcut to  8.000000000000 A.

------------------------------------------------------------
          Preparing all fixed parts of the calculation.
------------------------------------------------------------
  Determining machine precision:
    2.225073858507201E-308
  Setting up grids for atomic and cluster calculations.

  Creating wave function, potential, and density for free atoms.

  Species: H

  List of occupied orbitals and eigenvalues:
    n    l              occ      energy [Ha]    energy [eV]
    1    0           1.0000        -0.238386        -6.4868


  Species: O

  List of occupied orbitals and eigenvalues:
    n    l              occ      energy [Ha]    energy [eV]
    1    0           2.0000       -18.927378      -515.0401
    2    0           2.0000        -0.880539       -23.9607
    2    1           4.0000        -0.331811        -9.0290


  Adding cutoff potential to free-atom effective potential.
  Creating fixed part of basis set: Ionic, confined, hydrogenic.
 
  H                    hydrogenic:
 
  List of hydrogenic basis orbitals: 
    n    l      effective z      eigenvalue [eV]  inner max. [A]     outer max. [A]     outer radius [A]   
    2    0         2.100000       -14.9965           0.193243           1.317208           5.373006
    2    1         3.500000       -41.6672           0.602369           0.602369           4.056063
    1    0         0.850000        -9.8292           0.624871           0.624871           5.373006
 
  List of extra hydrogenic orbitals for auxiliary basis: 
    n    l      effective z      eigenvalue [eV]  inner max. [A]     outer max. [A]     outer radius [A]   
    3    2         7.000000       -74.0753           0.680699           0.680699           3.769201
 
 
  O                    hydrogenic:
 
  List of hydrogenic basis orbitals: 
    n    l      effective z      eigenvalue [eV]  inner max. [A]     outer max. [A]     outer radius [A]   
    2    1         1.800000       -11.0118           1.178562           1.178562           5.432602
    3    2         7.600000       -87.3182           0.624125           0.624125           3.541477
    3    0         6.400000       -61.9209           0.061167           1.081902           4.306578
    4    3        11.600000      -114.4238           0.731631           0.731631           3.585037
 
  List of extra hydrogenic orbitals for auxiliary basis: 
    n    l      effective z      eigenvalue [eV]  inner max. [A]     outer max. [A]     outer radius [A]   
    5    4        17.600000      -168.5799           0.749740           0.749740           3.372465
 
  Creating atomic-like basis functions for current effective potential.

  Species H                   :

  List of atomic basis orbitals and eigenvalues:
    n    l      energy [Ha]    energy [eV]    outer radius [A]
    1    0        -0.238386        -6.4868       5.373006


  Species O                   :

  List of atomic basis orbitals and eigenvalues:
    n    l      energy [Ha]    energy [eV]    outer radius [A]
    1    0       -18.927378      -515.0401       1.415765
    2    0        -0.880539       -23.9607       5.048385
    2    1        -0.331811        -9.0290       5.301386

  Assembling full basis from fixed parts.
  | Species H :   atomic orbital   1 s accepted.
  | Species H :    hydro orbital   2 s accepted.
  | Species H :    hydro orbital   1 s accepted.
  | Species H :    hydro orbital   2 p accepted.
  | Species O :   atomic orbital   1 s accepted.
  | Species O :    hydro orbital   3 s accepted.
  | Species O :   atomic orbital   2 s accepted.
  | Species O :   atomic orbital   2 p accepted.
  | Species O :    hydro orbital   2 p accepted.
  | Species O :    hydro orbital   3 d accepted.
  | Species O :    hydro orbital   4 f accepted.
 
  Basis size parameters after reduction:
  | Total number of radial functions:       11
  | Total number of basis functions :       33
 
  Assembling extended basis for auxiliary basis.
  | Species H :   atomic orbital   1 s accepted.
  | Species H :    hydro orbital   2 s accepted.
  | Species H :    hydro orbital   1 s accepted.
  | Species H :    hydro orbital   2 p accepted.
  | Species H :    hydro orbital   3 d accepted.
  | Species O :   atomic orbital   1 s accepted.
  | Species O :    hydro orbital   3 s accepted.
  | Species O :   atomic orbital   2 s accepted.
  | Species O :   atomic orbital   2 p accepted.
  | Species O :    hydro orbital   2 p accepted.
  | Species O :    hydro orbital   3 d accepted.
  | Species O :    hydro orbital   4 f accepted.
  | Species O :    hydro orbital   5 g accepted.
  Per-task memory consumption for arrays in subroutine allocate_ext:
  |           4.331812MB.
 
  Extended basis size parameters after reduction:
  | Total number of radial functions:       13
  | Total number of basis functions :       52
 
  Testing on-site integration grid accuracy.
  |  Species  Function  <phi|h_atom|phi> (log., in eV)  <phi|h_atom|phi> (rad., in eV)
           1        1                 -6.4870767962                 -6.4871688290
           1        2                 13.5032046589                 13.5028982997
           1        3                 32.8195184817                 32.8119941656
           1        4                 25.2452007246                 25.2452010322
           2        5               -515.0401491148               -515.0401445497
           2        6                 15.1629302771                 15.1629233102
           2        7                -21.6127103295                -21.6127145449
           2        8                 -9.0290718243                 -9.0290720379
           2        9                  7.9075681532                  7.9075643182
           2       10                 45.8331828879                 45.8331828941
           2       11                 85.4133898762                 85.4133899074

  Preparing densities etc. for the partition functions (integrals / Hartree potential).

  Preparations completed.
  max(cpu_time)          :      0.105 s.
  Wall clock time (cpu1) :      0.105 s.
------------------------------------------------------------

------------------------------------------------------------
          Begin self-consistency loop: Initialization.

          Date     :  20210824, Time     :  144841.545
------------------------------------------------------------

  Initializing index lists of integration centers etc. from given atomic structure:
  | Number of centers in hartree potential         :         3
  | Number of centers in hartree multipole         :         3
  | Number of centers in electron density summation:         3
  | Number of centers in basis integrals           :         3
  | Number of centers in integrals                 :         3
  | Number of centers in hamiltonian               :         3

  Initializing relaxation algorithms.
  Finished initialization of distributed Hessian storage.
  | Global dimension:         9
  | BLACS block size:         3
  | Number of workers:        3

  Reading estimated Hessian matrix from file 'hessian.aims'
  * Using 4 tasks for Scalapack Eigenvalue solver.
  Detailed listing of tasks and assigned k-points:
  (for non-periodic systems, the "k-point" denotes an internal label only)
   Task     0 k-point     1 on mercury
   Task     1 k-point     1 on mercury
   Task     2 k-point     1 on mercury
   Task     3 k-point     1 on mercury
  Tasks:     4 split into      2 X      2 BLACS grid
  Calculating block size based on n_basis =           33  max_nprow =            2  max_npcol =            2
  ScaLAPACK block size set to:           16
  Allocating        0.002 MB for ovlp
  Allocating        0.002 MB for ham
  Allocating        0.002 MB for eigenvec
  Required Scalapack workspace - INTEGER:            1  REAL:             1
  Partitioning the integration grid into batches with parallel hashing+maxmin method.
  | Number of batches:      599
  | Maximal batch size:     200
  | Minimal batch size:      49
  | Average batch size:      81.866
  | Standard deviation of batch sizes:      25.800

  Integration load balanced across     4 MPI tasks.
  Work distribution over tasks is as follows:
  Task     0 has      12270 integration points.
  Task     1 has      12232 integration points.
  Task     2 has      12257 integration points.
  Task     3 has      12279 integration points.
  Initializing partition tables, free-atom densities, potentials, etc. across the integration grid (initialize_grid_storage).
  | initialize_grid_storage: Actual outermost partition radius vs. multipole_radius_free
  | (-- VB: in principle, multipole_radius_free should be larger, hence this output)
  | Species        1: Confinement radius =              6.000000000000000 AA, multipole_radius_free =              6.071692442739658 AA.
  | Species        1: outer_partition_radius set to              6.071692442739658 AA .
  | Species        2: Confinement radius =              6.000000000000000 AA, multipole_radius_free =              6.064445521808699 AA.
  | Species        2: outer_partition_radius set to              6.064445521808699 AA .
  | The sparse table of interatomic distances needs          0.09 kbyte instead of         0.07 kbyte of memory.
  | Using the partition_type stratmann_smoother will reduce your memory usage.
  | Net number of integration points:    49038
  | of which are non-zero points    :    43944
  Renormalizing the initial density to the exact electron count on the 3D integration grid.
  | Initial density: Formal number of electrons (from input files) :      10.0000000000
  | Integrated number of electrons on 3D grid     :      10.0000001266
  | Charge integration error                      :       0.0000001266
  | Normalization factor for density and gradient :       0.9999999873
  Renormalizing the free-atom superposition density to the exact electron count on the 3D integration grid.
  | Formal number of electrons (from input files) :      10.0000000000
  | Integrated number of electrons on 3D grid     :      10.0000001266
  | Charge integration error                      :       0.0000001266
  | Normalization factor for density and gradient :       0.9999999873
  Obtaining max. number of non-zero basis functions in each batch (get_n_compute_maxes).
  | Maximal number of non-zero basis functions:       33 in task     0
  | Maximal number of non-zero basis functions:       33 in task     1
  | Maximal number of non-zero basis functions:       33 in task     2
  | Maximal number of non-zero basis functions:       33 in task     3
  Selecting the method for density update.
  Loop over occupied states selected for charge density update.
  Allocating        0.003 MB for KS_eigenvector
  Integrating Hamiltonian matrix: batch-based integration.
  Time summed over all CPUs for integration: real work        0.077 s, elapsed        0.079 s
  Integrating overlap matrix.
  Time summed over all CPUs for integration: real work        0.024 s, elapsed        0.025 s
  Deallocating overlap matrix.

  Updating Kohn-Sham eigenvalues and eigenvectors using ELSI and the ELPA eigensolver.
  Overlap matrix is not singular
  | Lowest and highest eigenvalues :  0.1499E-01,  0.2710E+01
  Finished singularity check of overlap matrix
  | Time :     0.000 s
  Starting ELPA eigensolver
  Finished Cholesky decomposition
  | Time :     0.001 s
  Finished transformation to standard eigenproblem
  | Time :     0.000 s
  Finished solving standard eigenproblem
  | Time :     0.000 s
  Finished back-transformation of eigenvectors
  | Time :     0.001 s

  Obtaining occupation numbers and chemical potential using ELSI.
  | Chemical potential (Fermi level):    -9.98570341 eV
  Writing Kohn-Sham eigenvalues.

  State    Occupation    Eigenvalue [Ha]    Eigenvalue [eV]
      1       2.00000         -19.032940         -517.91266
      2       2.00000          -1.095857          -29.81978
      3       2.00000          -0.625567          -17.02255
      4       2.00000          -0.508846          -13.84640
      5       2.00000          -0.436184          -11.86917
      6       0.00000          -0.059383           -1.61588
      7       0.00000           0.008186            0.22275
      8       0.00000           0.179831            4.89344
      9       0.00000           0.181215            4.93111
     10       0.00000           0.227081            6.17920
     11       0.00000           0.235160            6.39904

  Highest occupied state (VBM) at    -11.86917209 eV
  | Occupation number:      2.00000000

  Lowest unoccupied state (CBM) at    -1.61588267 eV
  | Occupation number:      0.00000000

  Overall HOMO-LUMO gap:     10.25328942 eV.
  Calculating total energy contributions from superposition of free atom densities.

  Total energy components:
  | Sum of eigenvalues            :         -43.39878827 Ha       -1180.94111452 eV
  | XC energy correction          :          -9.02076021 Ha        -245.46737466 eV
  | XC potential correction       :          11.59835562 Ha         315.60731422 eV
  | Free-atom electrostatic energy:         -35.72425171 Ha        -972.10634917 eV
  | Hartree energy correction     :           0.00000000 Ha           0.00000000 eV
  | Entropy correction            :           0.00000000 Ha           0.00000000 eV
  | ---------------------------
  | Total energy                  :         -76.54544458 Ha       -2082.90752413 eV
  | Total energy, T -> 0          :         -76.54544458 Ha       -2082.90752413 eV  <-- do not rely on this value for anything but (periodic) metals
  | Electronic free energy        :         -76.54544458 Ha       -2082.90752413 eV

  Derived energy quantities:
  | Kinetic energy                :          75.71377852 Ha        2060.27673936 eV
  | Electrostatic energy          :        -143.23846289 Ha       -3897.71688883 eV
  | Energy correction for multipole
  | error in Hartree potential    :           0.00000000 Ha           0.00000000 eV
  | Sum of eigenvalues per atom                           :        -393.64703817 eV
  | Total energy (T->0) per atom                          :        -694.30250804 eV  <-- do not rely on this value for anything but (periodic) metals
  | Electronic free energy per atom                       :        -694.30250804 eV
  
  --------------------------------------------
  Constructing auxiliary basis (full product) ...
  
  Product basis:
  | charge radius: extent of product basis function
  | field radius: extent of its Coulomb potential
  | Species   l  charge radius    field radius
  |    H      0     5.307721 A      9.088972 A
  |    H      0     5.373006 A     19.159255 A
  |    H      0     5.439094 A     22.459432 A
  |    H      0     5.439094 A     23.584993 A
  |    H      0     5.439094 A     24.766961 A
  |    H      0     5.439094 A     25.379976 A
  |    H      0     5.439094 A     25.071595 A
  |    H      1     4.311724 A     13.440350 A
  |    H      1     4.364758 A     20.617408 A
  |    H      1     4.418445 A     23.015333 A
  |    H      1     4.418445 A     24.168752 A
  |    H      1     4.418445 A     24.466028 A
  |    H      2     4.156456 A     19.159255 A
  |    H      2     4.207581 A     21.916959 A
  |    H      2     4.207581 A     23.584993 A
  |    H      2     4.207581 A     24.168752 A
  |    H      3     3.910002 A     21.650655 A
  |    H      3     3.862494 A     22.459432 A
  |    H      4     3.723403 A     21.916959 A
  |    O      0     4.749044 A      4.749044 A
  |    O      0     5.048385 A      5.048385 A
  |    O      0     5.236971 A     14.445992 A
  |    O      0     5.301386 A     21.102499 A
  |    O      0     5.366593 A     23.270614 A
  |    O      0     5.432602 A     24.436827 A
  |    O      0     5.432602 A     25.041670 A
  |    O      0     5.432602 A     25.041670 A
  |    O      1     5.110480 A      5.110480 A
  |    O      1     5.236971 A      5.236971 A
  |    O      1     5.301386 A     15.356547 A
  |    O      1     5.366593 A     20.846092 A
  |    O      1     5.366593 A     22.708547 A
  |    O      1     5.432602 A     24.139906 A
  |    O      1     5.432602 A     25.041670 A
  |    O      1     5.432602 A     25.349683 A
  |    O      2     5.236971 A      5.236971 A
  |    O      2     5.173339 A      5.499423 A
  |    O      2     5.301386 A     17.782978 A
  |    O      2     5.366593 A     21.890799 A
  |    O      2     5.432602 A     23.556843 A
  |    O      2     5.432602 A     24.737400 A
  |    O      2     5.432602 A     25.349683 A
  |    O      3     3.811008 A      3.811008 A
  |    O      3     3.905335 A      6.853044 A
  |    O      3     3.953371 A     17.782978 A
  |    O      3     4.001998 A     21.362060 A
  |    O      3     4.001998 A     22.987863 A
  |    O      3     4.001998 A     24.139906 A
  |    O      4     3.811008 A      3.811008 A
  |    O      4     3.905335 A     12.474882 A
  |    O      4     3.953371 A     19.371765 A
  |    O      4     4.001998 A     21.890799 A
  |    O      4     4.001998 A     23.270614 A
  |    O      5     3.764702 A      3.764702 A
  |    O      5     3.811008 A     16.934310 A
  |    O      5     3.811008 A     20.592800 A
  |    O      5     3.857883 A     22.432626 A
  |    O      6     3.498446 A     10.384792 A
  |    O      6     3.629133 A     18.447275 A
  |    O      6     3.629133 A     21.362060 A
  |    O      7     3.498446 A     16.126144 A
  |    O      7     3.541477 A     19.851242 A
  |    O      8     3.372465 A     17.353457 A

  | Shrink_full_auxil_basis : there are       63  radial auxiliary wave functions
                            accepted and      46 rejected.
  | Shrink_full_auxil_basis : there are totally                 414 partial auxiliary wave functions.
  prodbas_tasks_distribution_pbc not up to date - distributing tasks.
 
  | Maximal number of product basis functions per thread :   112   112
 
  | Number of local auxiliary basis funcs on node     0 :    112
  | Number of local auxiliary basis funcs on node     1 :    110
  | Number of local auxiliary basis funcs on node     2 :     96
  | Number of local auxiliary basis funcs on node     3 :     96
  Parallel distribution of product basis not up to date - distributing tasks.
 
  | Maximal number of product basis functions per thread :   112   112
 
  | Minimal total memory requirement for three-center overlap :       0.005 Gbs
  | Number of local auxiliary basis functions on task:      0   112
  | Number of local auxiliary basis functions on task:      1   110
  | Number of local auxiliary basis functions on task:      2    96
  | Number of local auxiliary basis functions on task:      3    96
  | 2D aux task distribution:      2 X      2
  | 2D block size (nb_aux_2d):     64
  | Task at    0 x    0 gets    222 x    222 entries of 2D aux
  | Task at    0 x    1 gets    222 x    192 entries of 2D aux
  | Task at    1 x    0 gets    192 x    222 entries of 2D aux
  | Task at    1 x    1 gets    192 x    192 entries of 2D aux
  -----------------------------------------
  --- Initializing Fock matrix calculations
  -----------------------------------------
  screening_threshold (crit_val) =  0.000000100000
  coul_mat_threshold =  0.000000000100
  Trying to make the workload more even by internally splitting atoms into fractions
  Atom:            1  Basis/atom:    21.0000000000000
  Atom:            2  Basis/atom:    6.00000000000000
  Atom:            3  Basis/atom:    6.00000000000000
  -----------------------------------------------------
  Dividing atoms among tasks for exact exchange energy:
  Atom:     1 Weight:   284.00
  Atom:     2 Weight:   65.000
  Atom:     3 Weight:   65.000

  Average weight per task:   103.50

  Number of "big" (above average) atoms  :     1
  Number of "small" (below average) atoms:     2

  There are "big" and "small" atoms
  Reserving    1 tasks for "big" atoms
  Max. weight for big atoms:   284.00     small atoms:   65.000
  Trying 2 tasks for "big" atoms:
  Max. weight for big atoms:   142.00     small atoms:   65.000
  => Atom 1 gets 2 tasks
  Trying 3 tasks for "big" atoms:
  Max. weight for big atoms:   94.667     small atoms:   130.00
  => Atom 1 gets 3 tasks
  Using 1 tasks for "small" atoms 3, for "big" atoms

  Atom division among tasks:
  Atom     1: (initial) task:     1, # of tasks:     3
  Atom     2: (initial) task:     0, # of tasks:     1
  Atom     3: (initial) task:     0, # of tasks:     1

  -----------------------------------------------------
 No atoms are split internally
  Number of super-cells in X Y Z:       0       0       0
  Number of atoms pairs total:            9
  Atom pair distribution:
  Cell:        0       0       0 atom pairs:        9
 sparsity of pfbvk:   1.000000    
  Number of atoms pairs in BvK cells:            9
  Initializing work distribution for fock matrix calculation
  Task     0 : Coulomb matrix distribution changed.
  Task     1 : Coulomb matrix distribution changed.
  Task     2 : Coulomb matrix distribution changed.
  Task     3 : Coulomb matrix distribution changed.
  Overall Coulomb matrix distribution changed.
  Coulomb matrix subdivision:
  Task     0 works on full atoms (no Coulomb matrix division)
  Task      0: my_n_atoms2:      2 my_atom_list:      2     3
  Task      1: my_n_atoms2:      1 my_atom_list:      1
  Task      2: my_n_atoms2:      1 my_atom_list:      1
  Task      3: my_n_atoms2:      1 my_atom_list:      1
  Task      0: my_n_atom_pairs:      6
  Task      1: my_n_atom_pairs:      1
  Task      2: my_n_atom_pairs:      1
  Task      3: my_n_atom_pairs:      1
  Max. memory consumption per node for Hartree Fock matrix + Pulay mixing [GB]:      0.00
  --- Initializing LVL triples, type HSE
  | Storage requirements for basis-basbas products (processor-local):
  |   Species H: n_prodsfn:    88; storage:        2.75 MiB.
  |   Species O: n_prodsfn:   529; storage:       16.53 MiB.

  --- Initializing Coulomb matrix calculations, type HSE
  Preparing TB like auxiliary 2-center HSE-pot matrix
  SBT integration errors (all should be 'small'):
  large logFT aliasing -> increase N/lnrange
  large SBT aliasing -> decrease lnk0 & increase lnk0+lnrange
  large SBT ringing -> decrease lnr0 & increase lnr0+lnrange
  |            El't  L: logFT-al.   small-k   large-k   small-r   large-r
  | Need to store  4341 splines of   318 points taking      10856 KiB.
  | Spline reduction from  4096 to   318 points by (cutting and)     1 x coarsening gives error:  0.00E+00
  | Maximum value outside interaction range:  2.35E-13
  Finished with initialize_tb_auxmat/lvl_triples, time:        0.466
  Upper limit for memory consumption per node [GB] for Coulomb matrices if no compression occurs:       0.005
  Upper limit for temporary arrays in Coulomb matrix initalization [GB]:      1.20
  --- Calculating Coulomb matrices
  Allocating        0.615 MB for aux_mat
  Allocating        1.846 MB for d_aux_mat
  Max. memory consumption per node for Coulomb matrix [GB]:      0.00
  Time to calculate Coulomb Matrices   :        0.005
   Number of Coulomb matrix elements:
  | Task     0 total:         215280, > threshold:          85166, stored:         189930
  | Task     1 total:         155664, > threshold:          26091, stored:          75576
  | Task     2 total:         157320, > threshold:          25573, stored:          76380
  | Task     3 total:         157320, > threshold:          25196, stored:          76380
  --- Done init_fock_matrix_calculations
  Max. memory per node for ovlp3fn matrices:        0.007 GB
  Total memory for ovlp3fn matrices:        0.007 GB
  Size of ovlp3fn for atom     198       2      65
  Size of ovlp3fn for atom     198       3      65
  --- Calculating OVLP3FN
  Allocating        1.911 MB for coeff_3fn
  Allocating        5.733 MB for d_coeff_3fn
  --- Done calculating OVLP3FN, time:        0.699
  Compare n_pairs with n_super       1       1
  --- Done getting norm of OVLP3FN, time:        0.000
  Atomic logSBT for 2-center HSE-pot matrix    :  max(cpu_time)    wall_clock(cpu1)
  | TB initialization                          :        0.283 s           0.283 s
  | TB usage                                   :        0.009 s           0.012 s

  Atomic logSBT for LVL-triples                :  max(cpu_time)    wall_clock(cpu1)
  | Multiplication with kernel                 :        0.005 s           0.005 s
  | Main matrix multiplication                 :        0.069 s           0.065 s
  | Analytic angular integration               :        0.004 s           0.006 s
  | Kernel construction                        :        0.005 s           0.005 s
  | Overall 2-center overlap time              :        0.094 s           0.094 s
  | 3-center preparation multiplications       :        0.011 s           0.013 s
  | 3-center preparation SBTs                  :        0.393 s           0.392 s
  | 3-center combinations                      :        0.105 s           0.104 s
  | Overal 3-center time                       :        0.509 s           0.510 s
  | LVL initialization                         :        0.182 s           0.182 s
  | Whole LVL-triples                          :        0.182 s           0.182 s

  Max. memory consumption per node for dm_cols plus fock_matrix [GB]:      0.00
  Calculating non-local Hartree-Fock exchange by two-center RI (RI-LVL).
  screening_threshold (crit_val) =  0.000000100000
  Max. memory consumption per node for ovlp3fn_rcv [GB]:      0.00
  Max. memory consumption per node for tmp1/tmp2 [GB]:      0.00
  Exact exchange progress report - outermost basis function loop i_basis_r1: 1 ..      33
  |        1         2         3         4         5         6         7         8         9        10
  |       11        12        13        14        15        16        17        18        19        20
  |       21        22        23        24        25        26        27        28        29        30
  |       31        32        33  
  Full exact exchange energy:     235.133191677122 eV.
  Detailed communication and barrier times:
  | Comm    0:        0.000       0.000       0.000       0.000       0.000       0.000       0.000       0.000       0.000       0.000
  | Comm    1:        0.000       0.000       0.000       0.002       0.000       0.000       0.000       0.000       0.001       0.002
  | Comm    2:        0.000       0.000       0.000       0.002       0.000       0.000       0.000       0.000       0.001       0.002
  | Comm    3:        0.000       0.000       0.000       0.002       0.000       0.000       0.000       0.000       0.001       0.002
  | Imbalance    0:        0.000       0.000       0.000       0.000       0.006       0.000       0.001       0.000       0.000       0.000
  | Imbalance    1:        0.000       0.000       0.000       0.000       0.000       0.000       0.000       0.000       0.000       0.000
  | Imbalance    2:        0.000       0.000       0.000       0.001       0.001       0.000       0.000       0.000       0.000       0.000
  | Imbalance    3:        0.000       0.000       0.000       0.001       0.001       0.000       0.000       0.000       0.000       0.000
  Times            DM_x_o3fn   CM_x_o3fn    Products        Sync   Imbalance    Pre/Post       Other  Total calc
  | Times    0:        0.000       0.000       0.005       0.001       0.007       0.001       0.001       0.015
  | Times    1:        0.001       0.000       0.005       0.005       0.001       0.001       0.002       0.015
  | Times    2:        0.000       0.000       0.004       0.005       0.003       0.001       0.001       0.015
  | Times    3:        0.000       0.000       0.004       0.005       0.003       0.001       0.001       0.015
  | Times  sum:        0.003       0.000       0.017       0.016       0.013       0.004       0.006       0.059

  Decomposition of Other based on code block (only on MPI task 0):
  Times             Block #1    Block #2    Block #3    Block #4    Block #5    Block #6    Block #7    Block #8
  | Times    0:        0.000       0.000       0.000       0.000       0.000       0.000       0.000       0.000

  Times             Block #9   Block #10   Block #11   Block #12   Block #13   Block #14   Block #15   Block #16
  | Times    0:        0.000       0.000       0.000       0.000       0.000       0.000       0.000       0.000

  Times            Block Sum    Expected
  | Times    0:        0.001       0.001
  Initialize hartree_potential_storage
  Max. number of atoms included in rho_multipole:            3

  End scf initialization - timings             :  max(cpu_time)    wall_clock(cpu1)
  | Time for scf. initialization               :        1.445 s           1.445 s
  | Boundary condition initialization          :        0.000 s           0.000 s
  | Relaxation initialization                  :        0.001 s           0.001 s
  | Integration                                :        0.026 s           0.026 s
  | Solution of K.-S. eqns.                    :        0.002 s           0.003 s
  | Grid partitioning                          :        0.013 s           0.013 s
  | Preloading free-atom quantities on grid    :        0.010 s           0.009 s
  | Free-atom superposition energy             :        0.007 s           0.007 s
  | Total energy evaluation                    :        0.000 s           0.000 s
  | Product basis setup: Total time            :        1.386 s           1.386 s

  Partial memory accounting:
  | Current value for overall tracked memory usage:
  |   Minimum:        0.813 MB (on task 0)
  |   Maximum:        3.851 MB (on task 1)
  |   Average:        1.721 MB
  | Peak value for overall tracked memory usage:
  |   Minimum:        8.457 MB (on task 0 after allocating d_coeff_3fn)
  |   Maximum:       11.495 MB (on task 1 after allocating d_coeff_3fn)
  |   Average:        9.366 MB
  | Largest tracked array allocation so far:
  |   Minimum:        5.733 MB (d_coeff_3fn on task 0)
  |   Maximum:        5.733 MB (d_coeff_3fn on task 0)
  |   Average:        5.733 MB
  Note:  These values currently only include a subset of arrays which are explicitly tracked.
  The "true" memory usage will be greater.
------------------------------------------------------------
  Evaluating new KS density.
  Integration grid: deviation in total charge (<rho> - N_e) =   8.881784E-15

------------------------------------------------------------
          Begin self-consistency iteration #    1

  Date     :  20210824, Time     :  144843.006
------------------------------------------------------------
  Pulay mixing of updated and previous charge densities.
  Renormalizing the density to the exact electron count on the 3D integration grid.
  | Formal number of electrons (from input files) :      10.0000000000
  | Integrated number of electrons on 3D grid     :      10.0000000000
  | Charge integration error                      :      -0.0000000000
  | Normalization factor for density and gradient :       1.0000000000

  Evaluating partitioned Hartree potential by multipole expansion.
  | Original multipole sum: apparent total charge =  -0.111428E-13
  | Sum of charges compensated after spline to logarithmic grids =   0.155691E-06
  | Analytical far-field extrapolation by fixed multipoles:
  | Hartree multipole sum: apparent total charge =  -0.111612E-13
  Summing up the Hartree potential.
  Time summed over all CPUs for potential: real work        0.031 s, elapsed        0.032 s
  | RMS charge density error from multipole expansion :   0.134898E-03

  Integrating Hamiltonian matrix: batch-based integration.
  Time summed over all CPUs for integration: real work        0.114 s, elapsed        0.116 s
  Max. memory consumption per node for dm_cols plus fock_matrix [GB]:      0.00
  Calculating non-local Hartree-Fock exchange by two-center RI (RI-LVL).
  screening_threshold (crit_val) =  0.000000100000
  Max. memory consumption per node for ovlp3fn_rcv [GB]:      0.00
  Max. memory consumption per node for tmp1/tmp2 [GB]:      0.00
  Exact exchange progress report - outermost basis function loop i_basis_r1: 1 ..      33
  |        1         2         3         4         5         6         7         8         9        10
  |       11        12        13        14        15        16        17        18        19        20
  |       21        22        23        24        25        26        27        28        29        30
  |       31        32        33  
  Full exact exchange energy:     235.133191677122 eV.
  Times            DM_x_o3fn   CM_x_o3fn    Products        Sync   Imbalance    Pre/Post       Other  Total calc
  | Times    0:        0.000       0.000       0.005       0.001       0.006       0.001       0.001       0.013
  | Times    1:        0.001       0.000       0.005       0.005       0.001       0.001       0.001       0.013
  | Times    2:        0.000       0.000       0.004       0.005       0.003       0.001       0.001       0.013
  | Times    3:        0.000       0.000       0.004       0.005       0.003       0.001       0.001       0.013
  | Times  sum:        0.002       0.000       0.017       0.014       0.012       0.003       0.004       0.053

  Decomposition of Other based on code block (only on MPI task 0):
  Times             Block #1    Block #2    Block #3    Block #4    Block #5    Block #6    Block #7    Block #8
  | Times    0:        0.000       0.000       0.000       0.000       0.000       0.000       0.000       0.000

  Times             Block #9   Block #10   Block #11   Block #12   Block #13   Block #14   Block #15   Block #16
  | Times    0:        0.000       0.000       0.000       0.000       0.000       0.000       0.000       0.000

  Times            Block Sum    Expected
  | Times    0:        0.001       0.001

  Updating Kohn-Sham eigenvalues and eigenvectors using ELSI and the ELPA eigensolver.
  Starting ELPA eigensolver
  Finished transformation to standard eigenproblem
  | Time :     0.000 s
  Finished solving standard eigenproblem
  | Time :     0.001 s
  Finished back-transformation of eigenvectors
  | Time :     0.000 s

  Obtaining occupation numbers and chemical potential using ELSI.
  | Chemical potential (Fermi level):    -9.37444306 eV
  Writing Kohn-Sham eigenvalues.

  State    Occupation    Eigenvalue [Ha]    Eigenvalue [eV]
      1       2.00000         -19.443155         -529.07517
      2       2.00000          -1.192439          -32.44791
      3       2.00000          -0.674096          -18.34308
      4       2.00000          -0.561914          -15.29046
      5       2.00000          -0.491756          -13.38135
      6       0.00000          -0.032669           -0.88897
      7       0.00000           0.036014            0.97998
      8       0.00000           0.205309            5.58674
      9       0.00000           0.212115            5.77195
     10       0.00000           0.268996            7.31976
     11       0.00000           0.271581            7.39010

  Highest occupied state (VBM) at    -13.38135327 eV
  | Occupation number:      2.00000000

  Lowest unoccupied state (CBM) at    -0.88897166 eV
  | Occupation number:      0.00000000

  Overall HOMO-LUMO gap:     12.49238160 eV.

  Total energy components:
  | Sum of eigenvalues            :         -44.72671884 Ha       -1217.07594377 eV
  | XC energy correction          :          -4.86340680 Ha        -132.34003232 eV
  | XC potential correction       :           8.99032863 Ha         244.63928903 eV
  | Free-atom electrostatic energy:         -35.72425171 Ha        -972.10634917 eV
  | Hartree energy correction     :          -0.22206799 Ha          -6.04277751 eV
  | Entropy correction            :           0.00000000 Ha           0.00000000 eV
  | ---------------------------
  | Total energy                  :         -76.54611671 Ha       -2082.92581374 eV
  | Total energy, T -> 0          :         -76.54611671 Ha       -2082.92581374 eV  <-- do not rely on this value for anything but (periodic) metals
  | Electronic free energy        :         -76.54611671 Ha       -2082.92581374 eV

  Derived energy quantities:
  | Kinetic energy                :          75.99335740 Ha        2067.88446767 eV
  | Electrostatic energy          :        -143.35420773 Ha       -3900.86646614 eV
  | Energy correction for multipole
  | error in Hartree potential    :          -0.00017969 Ha          -0.00488953 eV
  | Sum of eigenvalues per atom                           :        -405.69198126 eV
  | Total energy (T->0) per atom                          :        -694.30860458 eV  <-- do not rely on this value for anything but (periodic) metals
  | Electronic free energy per atom                       :        -694.30860458 eV

  Self-consistency convergence accuracy:
  | Change of charge density      :  0.3089E+00
  | Change of sum of eigenvalues  : -0.3613E+02 eV
  | Change of total energy        : -0.1829E-01 eV

  Evaluating new KS density.
  Integration grid: deviation in total charge (<rho> - N_e) =  -1.243450E-14
  End self-consistency iteration #     1       :  max(cpu_time)    wall_clock(cpu1)
  | Time for this iteration                    :        0.069 s           0.069 s
  | Charge density update                      :        0.015 s           0.015 s
  | Density mixing                             :        0.001 s           0.001 s
  | Hartree multipole update                   :        0.002 s           0.001 s
  | Hartree multipole summation                :        0.008 s           0.009 s
  | Integration                                :        0.029 s           0.029 s
  | Fock matrix evaluation                     :        0.013 s           0.013 s
  | Solution of K.-S. eqns.                    :        0.001 s           0.001 s
  | Total energy evaluation                    :        0.000 s           0.000 s

  Partial memory accounting:
  | Current value for overall tracked memory usage:
  |   Minimum:        0.813 MB (on task 0)
  |   Maximum:        3.851 MB (on task 1)
  |   Average:        1.721 MB
  | Peak value for overall tracked memory usage:
  |   Minimum:        8.457 MB (on task 0 after allocating d_coeff_3fn)
  |   Maximum:       11.495 MB (on task 1 after allocating d_coeff_3fn)
  |   Average:        9.366 MB
  | Largest tracked array allocation so far:
  |   Minimum:        5.733 MB (d_coeff_3fn on task 0)
  |   Maximum:        5.733 MB (d_coeff_3fn on task 0)
  |   Average:        5.733 MB
  Note:  These values currently only include a subset of arrays which are explicitly tracked.
  The "true" memory usage will be greater.
------------------------------------------------------------

------------------------------------------------------------
          Begin self-consistency iteration #    2

  Date     :  20210824, Time     :  144843.076
------------------------------------------------------------
  Pulay mixing of updated and previous charge densities.
  Renormalizing the density to the exact electron count on the 3D integration grid.
  | Formal number of electrons (from input files) :      10.0000000000
  | Integrated number of electrons on 3D grid     :      10.0000000000
  | Charge integration error                      :      -0.0000000000
  | Normalization factor for density and gradient :       1.0000000000

  Evaluating partitioned Hartree potential by multipole expansion.
  | Original multipole sum: apparent total charge =  -0.236138E-14
  | Sum of charges compensated after spline to logarithmic grids =   0.204109E-05
  | Analytical far-field extrapolation by fixed multipoles:
  | Hartree multipole sum: apparent total charge =  -0.182023E-14
  Summing up the Hartree potential.
  Time summed over all CPUs for potential: real work        0.031 s, elapsed        0.032 s
  | RMS charge density error from multipole expansion :   0.238359E-02

  Integrating Hamiltonian matrix: batch-based integration.
  Time summed over all CPUs for integration: real work        0.115 s, elapsed        0.116 s
  Max. memory consumption per node for dm_cols plus fock_matrix [GB]:      0.00
  Calculating non-local Hartree-Fock exchange by two-center RI (RI-LVL).
  screening_threshold (crit_val) =  0.000000100000
  Max. memory consumption per node for ovlp3fn_rcv [GB]:      0.00
  Max. memory consumption per node for tmp1/tmp2 [GB]:      0.00
  Exact exchange progress report - outermost basis function loop i_basis_r1: 1 ..      33
  |        1         2         3         4         5         6         7         8         9        10
  |       11        12        13        14        15        16        17        18        19        20
  |       21        22        23        24        25        26        27        28        29        30
  |       31        32        33  
  Full exact exchange energy:     235.284770397440 eV.
  Times            DM_x_o3fn   CM_x_o3fn    Products        Sync   Imbalance    Pre/Post       Other  Total calc
  | Times    0:        0.000       0.000       0.004       0.001       0.006       0.001       0.001       0.013
  | Times    1:        0.001       0.000       0.005       0.004       0.001       0.001       0.001       0.013
  | Times    2:        0.000       0.000       0.004       0.004       0.003       0.001       0.001       0.013
  | Times    3:        0.000       0.000       0.004       0.004       0.003       0.001       0.001       0.013
  | Times  sum:        0.002       0.000       0.016       0.013       0.012       0.003       0.004       0.052

  Decomposition of Other based on code block (only on MPI task 0):
  Times             Block #1    Block #2    Block #3    Block #4    Block #5    Block #6    Block #7    Block #8
  | Times    0:        0.000       0.000       0.000       0.000       0.000       0.000       0.000       0.000

  Times             Block #9   Block #10   Block #11   Block #12   Block #13   Block #14   Block #15   Block #16
  | Times    0:        0.000       0.000       0.000       0.000       0.000       0.000       0.000       0.000

  Times            Block Sum    Expected
  | Times    0:        0.001       0.001

  Updating Kohn-Sham eigenvalues and eigenvectors using ELSI and the ELPA eigensolver.
  Starting ELPA eigensolver
  Finished transformation to standard eigenproblem
  | Time :     0.000 s
  Finished solving standard eigenproblem
  | Time :     0.000 s
  Finished back-transformation of eigenvectors
  | Time :     0.000 s

  Obtaining occupation numbers and chemical potential using ELSI.
  | Chemical potential (Fermi level):    -4.37897150 eV
  Highest occupied state (VBM) at     -4.70456063 eV
  | Occupation number:      2.00000000

  Lowest unoccupied state (CBM) at     0.64416172 eV
  | Occupation number:      0.00000000

  Overall HOMO-LUMO gap:      5.34872234 eV.

  Checking to see if s.c.f. parameters should be adjusted.
  The system likely has a gap. Increased the default Pulay mixing parameter (charge_mix_param). Value:   0.200000 .
  Kept the default occupation width. Value:   0.010000 eV.

  Total energy components:
  | Sum of eigenvalues            :         -41.03844964 Ha       -1116.71303232 eV
  | XC energy correction          :          -5.33223628 Ha        -145.09753162 eV
  | XC potential correction       :           9.44765041 Ha         257.08364799 eV
  | Free-atom electrostatic energy:         -35.72425171 Ha        -972.10634917 eV
  | Hartree energy correction     :          -4.05228020 Ha        -110.26815467 eV
  | Entropy correction            :           0.00000000 Ha           0.00000000 eV
  | ---------------------------
  | Total energy                  :         -76.69956741 Ha       -2087.10141980 eV
  | Total energy, T -> 0          :         -76.69956741 Ha       -2087.10141980 eV  <-- do not rely on this value for anything but (periodic) metals
  | Electronic free energy        :         -76.69956741 Ha       -2087.10141980 eV

  Derived energy quantities:
  | Kinetic energy                :          77.80476150 Ha        2117.17528115 eV
  | Electrostatic energy          :        -145.08734280 Ha       -3948.02747093 eV
  | Energy correction for multipole
  | error in Hartree potential    :          -0.00312647 Ha          -0.08507553 eV
  | Sum of eigenvalues per atom                           :        -372.23767744 eV
  | Total energy (T->0) per atom                          :        -695.70047327 eV  <-- do not rely on this value for anything but (periodic) metals
  | Electronic free energy per atom                       :        -695.70047327 eV

  Self-consistency convergence accuracy:
  | Change of charge density      :  0.2954E+00
  | Change of sum of eigenvalues  :  0.1004E+03 eV
  | Change of total energy        : -0.4176E+01 eV

  Evaluating new KS density.
  Integration grid: deviation in total charge (<rho> - N_e) =   7.105427E-15
  End self-consistency iteration #     2       :  max(cpu_time)    wall_clock(cpu1)
  | Time for this iteration                    :        0.069 s           0.068 s
  | Charge density update                      :        0.015 s           0.015 s
  | Density mixing                             :        0.001 s           0.001 s
  | Hartree multipole update                   :        0.002 s           0.001 s
  | Hartree multipole summation                :        0.008 s           0.008 s
  | Integration                                :        0.029 s           0.029 s
  | Fock matrix evaluation                     :        0.013 s           0.014 s
  | Solution of K.-S. eqns.                    :        0.001 s           0.000 s
  | Total energy evaluation                    :        0.000 s           0.000 s

  Partial memory accounting:
  | Current value for overall tracked memory usage:
  |   Minimum:        0.814 MB (on task 0)
  |   Maximum:        3.851 MB (on task 1)
  |   Average:        1.722 MB
  | Peak value for overall tracked memory usage:
  |   Minimum:        8.457 MB (on task 0 after allocating d_coeff_3fn)
  |   Maximum:       11.495 MB (on task 1 after allocating d_coeff_3fn)
  |   Average:        9.366 MB
  | Largest tracked array allocation so far:
  |   Minimum:        5.733 MB (d_coeff_3fn on task 0)
  |   Maximum:        5.733 MB (d_coeff_3fn on task 0)
  |   Average:        5.733 MB
  Note:  These values currently only include a subset of arrays which are explicitly tracked.
  The "true" memory usage will be greater.
------------------------------------------------------------

------------------------------------------------------------
          Begin self-consistency iteration #    3

  Date     :  20210824, Time     :  144843.145
------------------------------------------------------------
  Pulay mixing of updated and previous charge densities.
  Renormalizing the density to the exact electron count on the 3D integration grid.
  | Formal number of electrons (from input files) :      10.0000000000
  | Integrated number of electrons on 3D grid     :      10.0000000000
  | Charge integration error                      :       0.0000000000
  | Normalization factor for density and gradient :       1.0000000000

  Evaluating partitioned Hartree potential by multipole expansion.
  | Original multipole sum: apparent total charge =   0.150292E-13
  | Sum of charges compensated after spline to logarithmic grids =   0.732976E-06
  | Analytical far-field extrapolation by fixed multipoles:
  | Hartree multipole sum: apparent total charge =   0.147340E-13
  Summing up the Hartree potential.
  Time summed over all CPUs for potential: real work        0.032 s, elapsed        0.034 s
  | RMS charge density error from multipole expansion :   0.114360E-02

  Integrating Hamiltonian matrix: batch-based integration.
  Time summed over all CPUs for integration: real work        0.117 s, elapsed        0.120 s
  Max. memory consumption per node for dm_cols plus fock_matrix [GB]:      0.00
  Calculating non-local Hartree-Fock exchange by two-center RI (RI-LVL).
  screening_threshold (crit_val) =  0.000000100000
  Max. memory consumption per node for ovlp3fn_rcv [GB]:      0.00
  Max. memory consumption per node for tmp1/tmp2 [GB]:      0.00
  Exact exchange progress report - outermost basis function loop i_basis_r1: 1 ..      33
  |        1         2         3         4         5         6         7         8         9        10
  |       11        12        13        14        15        16        17        18        19        20
  |       21        22        23        24        25        26        27        28        29        30
  |       31        32        33  
  Full exact exchange energy:     214.658639526553 eV.
  Times            DM_x_o3fn   CM_x_o3fn    Products        Sync   Imbalance    Pre/Post       Other  Total calc
  | Times    0:        0.000       0.000       0.005       0.001       0.006       0.001       0.001       0.013
  | Times    1:        0.001       0.000       0.005       0.004       0.001       0.001       0.001       0.013
  | Times    2:        0.000       0.000       0.004       0.004       0.003       0.001       0.001       0.013
  | Times    3:        0.000       0.000       0.004       0.004       0.003       0.001       0.001       0.013
  | Times  sum:        0.002       0.000       0.017       0.013       0.012       0.003       0.004       0.052

  Decomposition of Other based on code block (only on MPI task 0):
  Times             Block #1    Block #2    Block #3    Block #4    Block #5    Block #6    Block #7    Block #8
  | Times    0:        0.000       0.000       0.000       0.000       0.000       0.000       0.000       0.000

  Times             Block #9   Block #10   Block #11   Block #12   Block #13   Block #14   Block #15   Block #16
  | Times    0:        0.000       0.000       0.000       0.000       0.000       0.000       0.000       0.000

  Times            Block Sum    Expected
  | Times    0:        0.001       0.001

  Updating Kohn-Sham eigenvalues and eigenvectors using ELSI and the ELPA eigensolver.
  Starting ELPA eigensolver
  Finished transformation to standard eigenproblem
  | Time :     0.000 s
  Finished solving standard eigenproblem
  | Time :     0.000 s
  Finished back-transformation of eigenvectors
  | Time :     0.000 s

  Obtaining occupation numbers and chemical potential using ELSI.
  | Chemical potential (Fermi level):    -7.79089483 eV
  Highest occupied state (VBM) at     -9.96832517 eV
  | Occupation number:      2.00000000

  Lowest unoccupied state (CBM) at    -0.33733269 eV
  | Occupation number:      0.00000000

  Overall HOMO-LUMO gap:      9.63099248 eV.

  Total energy components:
  | Sum of eigenvalues            :         -43.35423241 Ha       -1179.72868774 eV
  | XC energy correction          :          -5.02499867 Ha        -136.73717095 eV
  | XC potential correction       :           9.14500981 Ha         248.84837829 eV
  | Free-atom electrostatic energy:         -35.72425171 Ha        -972.10634917 eV
  | Hartree energy correction     :          -1.54390803 Ha         -42.01187503 eV
  | Entropy correction            :           0.00000000 Ha           0.00000000 eV
  | ---------------------------
  | Total energy                  :         -76.50238100 Ha       -2081.73570459 eV
  | Total energy, T -> 0          :         -76.50238100 Ha       -2081.73570459 eV  <-- do not rely on this value for anything but (periodic) metals
  | Electronic free energy        :         -76.50238100 Ha       -2081.73570459 eV

  Derived energy quantities:
  | Kinetic energy                :          76.66053445 Ha        2086.03927899 eV
  | Electrostatic energy          :        -143.90226790 Ha       -3915.77994222 eV
  | Energy correction for multipole
  | error in Hartree potential    :          -0.00123708 Ha          -0.03366264 eV
  | Sum of eigenvalues per atom                           :        -393.24289591 eV
  | Total energy (T->0) per atom                          :        -693.91190153 eV  <-- do not rely on this value for anything but (periodic) metals
  | Electronic free energy per atom                       :        -693.91190153 eV

  Self-consistency convergence accuracy:
  | Change of charge density      :  0.4619E+00
  | Change of sum of eigenvalues  : -0.6302E+02 eV
  | Change of total energy        :  0.5366E+01 eV

  Evaluating new KS density.
  Integration grid: deviation in total charge (<rho> - N_e) =  -3.552714E-15
  End self-consistency iteration #     3       :  max(cpu_time)    wall_clock(cpu1)
  | Time for this iteration                    :        0.071 s           0.071 s
  | Charge density update                      :        0.015 s           0.016 s
  | Density mixing                             :        0.001 s           0.001 s
  | Hartree multipole update                   :        0.002 s           0.002 s
  | Hartree multipole summation                :        0.009 s           0.008 s
  | Integration                                :        0.030 s           0.030 s
  | Fock matrix evaluation                     :        0.013 s           0.013 s
  | Solution of K.-S. eqns.                    :        0.001 s           0.000 s
  | Total energy evaluation                    :        0.000 s           0.000 s

  Partial memory accounting:
  | Current value for overall tracked memory usage:
  |   Minimum:        0.814 MB (on task 0)
  |   Maximum:        3.851 MB (on task 1)
  |   Average:        1.722 MB
  | Peak value for overall tracked memory usage:
  |   Minimum:        8.457 MB (on task 0 after allocating d_coeff_3fn)
  |   Maximum:       11.495 MB (on task 1 after allocating d_coeff_3fn)
  |   Average:        9.366 MB
  | Largest tracked array allocation so far:
  |   Minimum:        5.733 MB (d_coeff_3fn on task 0)
  |   Maximum:        5.733 MB (d_coeff_3fn on task 0)
  |   Average:        5.733 MB
  Note:  These values currently only include a subset of arrays which are explicitly tracked.
  The "true" memory usage will be greater.
------------------------------------------------------------

------------------------------------------------------------
          Begin self-consistency iteration #    4

  Date     :  20210824, Time     :  144843.216
------------------------------------------------------------
[...]

  Integrating Hamiltonian matrix: batch-based integration.
  Time summed over all CPUs for integration: real work        0.117 s, elapsed        0.122 s
  Max. memory consumption per node for dm_cols plus fock_matrix [GB]:      0.00
  Calculating non-local Hartree-Fock exchange by two-center RI (RI-LVL).
  screening_threshold (crit_val) =  0.000000100000
  Max. memory consumption per node for ovlp3fn_rcv [GB]:      0.00
  Max. memory consumption per node for tmp1/tmp2 [GB]:      0.00
  Exact exchange progress report - outermost basis function loop i_basis_r1: 1 ..      33
  |        1         2         3         4         5         6         7         8         9        10
  |       11        12        13        14        15        16        17        18        19        20
  |       21        22        23        24        25        26        27        28        29        30
  |       31        32        33  
  Full exact exchange energy:     226.367859245202 eV.
  Times            DM_x_o3fn   CM_x_o3fn    Products        Sync   Imbalance    Pre/Post       Other  Total calc
  | Times    0:        0.000       0.000       0.013       0.001       0.001       0.001       0.001       0.017
  | Times    1:        0.001       0.000       0.007       0.006       0.002       0.001       0.002       0.017
  | Times    2:        0.000       0.000       0.006       0.006       0.004       0.001       0.001       0.017
  | Times    3:        0.000       0.000       0.006       0.006       0.004       0.001       0.001       0.017
  | Times  sum:        0.003       0.000       0.031       0.017       0.010       0.003       0.005       0.070

  Decomposition of Other based on code block (only on MPI task 0):
  Times             Block #1    Block #2    Block #3    Block #4    Block #5    Block #6    Block #7    Block #8
  | Times    0:        0.000       0.000       0.000       0.000       0.000       0.000       0.000       0.000

  Times             Block #9   Block #10   Block #11   Block #12   Block #13   Block #14   Block #15   Block #16
  | Times    0:        0.000       0.000       0.000       0.000       0.000       0.000       0.000       0.000

  Times            Block Sum    Expected
  | Times    0:        0.001       0.001

  Updating Kohn-Sham eigenvalues and eigenvectors using ELSI and the ELPA eigensolver.
  Starting ELPA eigensolver
  Finished transformation to standard eigenproblem
  | Time :     0.000 s
  Finished solving standard eigenproblem
  | Time :     0.000 s
  Finished back-transformation of eigenvectors
  | Time :     0.000 s

  Obtaining occupation numbers and chemical potential using ELSI.
  | Chemical potential (Fermi level):    -7.11731584 eV
  Highest occupied state (VBM) at     -8.65052288 eV
  | Occupation number:      2.00000000

  Lowest unoccupied state (CBM) at     0.11244352 eV
  | Occupation number:      0.00000000

  Overall HOMO-LUMO gap:      8.76296640 eV.

  Total energy components:
  | Sum of eigenvalues            :         -42.99801150 Ha       -1170.03542367 eV
  | XC energy correction          :          -5.10813076 Ha        -138.99931020 eV
  | XC potential correction       :           9.20342996 Ha         250.43807146 eV
  | Free-atom electrostatic energy:         -35.65970025 Ha        -970.34981465 eV
  | Hartree energy correction     :          -1.91509370 Ha         -52.11235099 eV
  | Entropy correction            :           0.00000000 Ha           0.00000000 eV
  | ---------------------------
  | Total energy                  :         -76.47750625 Ha       -2081.05882806 eV
  | Total energy, T -> 0          :         -76.47750625 Ha       -2081.05882806 eV  <-- do not rely on this value for anything but (periodic) metals
  | Electronic free energy        :         -76.47750625 Ha       -2081.05882806 eV

  Derived energy quantities:
  | Kinetic energy                :          76.37406429 Ha        2078.24402931 eV
  | Electrostatic energy          :        -143.58400682 Ha       -3907.11961753 eV
  | Energy correction for multipole
  | error in Hartree potential    :          -0.00156801 Ha          -0.04266784 eV
  | Sum of eigenvalues per atom                           :        -390.01180789 eV
  | Total energy (T->0) per atom                          :        -693.68627602 eV  <-- do not rely on this value for anything but (periodic) metals
  | Electronic free energy per atom                       :        -693.68627602 eV

  atomic forces [eV/Ang]:
  -----------------------
  atom #    1
   Hellmann-Feynman              : -0.238267E-07  0.176038E+02 -0.939209E-11
   Ionic forces                  :  0.000000E+00  0.000000E+00  0.000000E+00
   Multipole                     : -0.283444E-09 -0.250323E+00  0.942174E-12
   Hartree-Fock exchange         : -0.916070E-07 -0.651781E+01  0.951657E-11
   Pulay + GGA                   : -0.303151E-08 -0.108339E+02 -0.360666E-11
   ----------------------------------------------------------------
   Total forces(   1)            : -0.118749E-06  0.175724E-02 -0.254000E-11
  atom #    2
   Hellmann-Feynman              :  0.321610E+00 -0.344307E+00  0.180134E-11
   Ionic forces                  :  0.000000E+00  0.000000E+00  0.000000E+00
   Multipole                     :  0.494118E-02  0.473705E-02  0.103841E-12
   Hartree-Fock exchange         : -0.424441E+01  0.325891E+01 -0.250181E-10
   Pulay + GGA                   :  0.391763E+01 -0.292021E+01 -0.213826E-10
   ----------------------------------------------------------------
   Total forces(   2)            : -0.227349E-03 -0.877224E-03 -0.444956E-10
  atom #    3
   Hellmann-Feynman              : -0.321610E+00 -0.344307E+00 -0.256808E-11
   Ionic forces                  :  0.000000E+00  0.000000E+00  0.000000E+00
   Multipole                     : -0.494118E-02  0.473705E-02 -0.148515E-12
   Hartree-Fock exchange         :  0.424441E+01  0.325891E+01  0.155016E-10
   Pulay + GGA                   : -0.391763E+01 -0.292021E+01  0.337611E-10
   ----------------------------------------------------------------
   Total forces(   3)            :  0.227466E-03 -0.877285E-03  0.465461E-10


  Self-consistency convergence accuracy:
  | Change of charge density      :  0.4978E-07
  | Change of sum of eigenvalues  :  0.2083E-05 eV
  | Change of total energy        : -0.8521E-07 eV
  | Change of forces              :  0.1003E+02 eV/A

  Writing Kohn-Sham eigenvalues.

  State    Occupation    Eigenvalue [Ha]    Eigenvalue [eV]
      1       2.00000         -19.220646         -523.02038
      2       2.00000          -1.029870          -28.02418
      3       2.00000          -0.537641          -14.62995
      4       2.00000          -0.392949          -10.69268
      5       2.00000          -0.317901           -8.65052
      6       0.00000           0.004132            0.11244
      7       0.00000           0.074335            2.02274
      8       0.00000           0.252340            6.86651
      9       0.00000           0.270058            7.34867
     10       0.00000           0.348552            9.48459
     11       0.00000           0.350027            9.52472

  Highest occupied state (VBM) at     -8.65052288 eV
  | Occupation number:      2.00000000

  Lowest unoccupied state (CBM) at     0.11244352 eV
  | Occupation number:      0.00000000

  Overall HOMO-LUMO gap:      8.76296640 eV.

  Self-consistency cycle converged.

  End self-consistency iteration #     8       :  max(cpu_time)    wall_clock(cpu1)
  | Time for this iteration                    :        0.085 s           0.085 s
  | Charge density & force component update    :        0.000 s           0.000 s
  | Density mixing                             :        0.002 s           0.002 s
  | Hartree multipole update                   :        0.002 s           0.001 s
  | Hartree multipole summation                :        0.032 s           0.032 s
  | Integration                                :        0.031 s           0.031 s
  | Fock matrix evaluation                     :        0.018 s           0.018 s
  | Solution of K.-S. eqns.                    :        0.000 s           0.000 s
  | Total energy evaluation                    :        0.000 s           0.000 s

  Partial memory accounting:
  | Current value for overall tracked memory usage:
  |   Minimum:        0.816 MB (on task 0)
  |   Maximum:        3.854 MB (on task 1)
  |   Average:        1.724 MB
  | Peak value for overall tracked memory usage:
  |   Minimum:        8.460 MB (on task 0 after allocating d_coeff_3fn)
  |   Maximum:       11.498 MB (on task 1 after allocating d_coeff_3fn)
  |   Average:        9.369 MB
  | Largest tracked array allocation so far:
  |   Minimum:        5.733 MB (d_coeff_3fn on task 0)
  |   Maximum:        5.733 MB (d_coeff_3fn on task 0)
  |   Average:        5.733 MB
  Note:  These values currently only include a subset of arrays which are explicitly tracked.
  The "true" memory usage will be greater.
------------------------------------------------------------
  Removing unitary transformations (pure translations, rotations) from forces on atoms.
  Atomic forces before filtering:
  | Net force on center of mass :  -0.791125E-09  0.272990E-05 -0.489511E-12 eV/A
  | Net torque on center of mass:  -0.138228E-11  0.693039E-10  0.115292E-06 eV
  Atomic forces after filtering:
  | Net force on center of mass :   0.000000E+00 -0.174225E-18  0.141370E-27 eV/A
  | Net torque on center of mass:   0.163958E-26  0.141582E-25 -0.749091E-19 eV

  Energy and forces in a compact form:
  | Total energy uncorrected      :         -0.208105882805628E+04 eV
  | Total energy corrected        :         -0.208105882805628E+04 eV  <-- do not rely on this value for anything but (periodic) metals
  | Electronic free energy        :         -0.208105882805628E+04 eV
  Total atomic forces (unitary forces cleaned) [eV/Ang]:
  |    1         -0.861974662592049E-07          0.175632945510139E-02          0.286638099323385E-26
  |    2         -0.227364392140834E-03         -0.878197654441863E-03         -0.106619985375044E-25
  |    3          0.227450589607093E-03         -0.878131800659528E-03          0.793698801375043E-26

  ------------------------------------ 
  Start decomposition of the XC Energy 
  ------------------------------------ 
  X and C from original XC functional choice 
  Hartree-Fock Energy :         -2.079716481 Ha            -56.591964811 eV
  X Energy            :         -8.941784124 Ha           -243.318325909 eV
  C Energy            :         -0.325779598 Ha             -8.864913917 eV
  Total XC Energy     :         -9.267563722 Ha           -252.183239826 eV
  ------------------------------------ 
  LDA X and C from self-consistent density 
  X Energy LDA        :         -8.118214384 Ha           -220.907853050 eV
  C Energy LDA        :         -0.660331170 Ha            -17.968525360 eV
  ------------------------------------ 
  End decomposition of the XC Energy 
  ------------------------------------ 

------------------------------------------------------------
  Relaxation / MD: End force evaluation.       :  max(cpu_time)    wall_clock(cpu1)
  | Time for this force evaluation             :        2.109 s           2.110 s

------------------------------------------------------------
  Geometry optimization: Attempting to predict improved coordinates.

  Removing unitary transformations (pure translations, rotations) from forces on atoms.
  Atomic forces before filtering:
  | Net force on center of mass :   0.000000E+00 -0.174225E-18  0.141370E-27 eV/A
  | Net torque on center of mass:   0.163958E-26  0.141582E-25 -0.749091E-19 eV
  Atomic forces after filtering:
  | Net force on center of mass :   0.000000E+00 -0.174225E-18 -0.506958E-43 eV/A
  | Net torque on center of mass:   0.292688E-42  0.190688E-41 -0.749091E-19 eV
  Net remaining forces (excluding translations, rotations) in present geometry:
  || Forces on atoms   || =   0.175633E-02 eV/A.
  Maximum force component is  0.175633E-02 eV/A.
  Present geometry is converged.

------------------------------------------------------------
  Final atomic structure:
                         x [A]             y [A]             z [A]
            atom         0.00000000       -0.08362273       -0.00000000  O
            atom         0.76123306       -0.66518863        0.00000000  H
            atom        -0.76123306       -0.66518863        0.00000000  H
------------------------------------------------------------

------------------------------------------------------------------------------
  Final output of selected total energy values:

  The following output summarizes some interesting total energy values
  at the end of a run (AFTER all relaxation, molecular dynamics, etc.).

  | Total energy of the DFT / Hartree-Fock s.c.f. calculation      :          -2081.058828056 eV
  | Final zero-broadening corrected energy (caution - metals only) :          -2081.058828056 eV
  | For reference only, the value of 1 Hartree used in FHI-aims is :             27.211384500 eV

  Before relying on these values, please be sure to understand exactly which
  total energy value is referred to by a given number. Different objects may
  all carry the same name 'total energy'. Definitions:

  Total energy of the DFT / Hartree-Fock s.c.f. calculation:
  | Note that this energy does not include ANY quantities calculated after the
  | s.c.f. cycle, in particular not ANY RPA, MP2, etc. many-body perturbation terms.

  Final zero-broadening corrected energy:
  | For metallic systems only, a broadening of the occupation numbers at the Fermi
  | level can be extrapolated back to zero broadening by an electron-gas inspired
  | formula. For all systems that are not real metals, this value can be
  | meaningless and should be avoided.

------------------------------------------------------------------------------
  Methods described in the following list of references were used in this FHI-aims run.
  If you publish the results, please make sure to cite these reference if they apply.
  FHI-aims is an academic code, and for our developers (often, Ph.D. students
  and postdocs), scientific credit in the community is essential.
  Thank you for helping us!

  For any use of FHI-aims, please cite:

    Volker Blum, Ralf Gehrke, Felix Hanke, Paula Havu, Ville Havu,
    Xinguo Ren, Karsten Reuter, and Matthias Scheffler
    'Ab initio molecular simulations with numeric atom-centered orbitals'
    Computer Physics Communications 180, 2175-2196 (2009)
    http://dx.doi.org/10.1016/j.cpc.2009.06.022


  For Hartree-Fock, hybrid functionals, or many-body perturbation theory used in your run, please cite:

    Xinguo Ren, Patrick Rinke, Volker Blum, Juergen Wieferink, Alex Tkatchenko,
    Andrea Sanfilippo, Karsten Reuter, and Matthias Scheffler,
    'Resolution-of-identity approach to Hartree-Fock, hybrid density functionals,
    RPA, MP2, and GW with numeric atom-centered orbital basis functions'
    New Journal of Physics 14, 053020 (2012).
    http://dx.doi.org/10.1088/1367-2630/14/5/053020


  The ELSI infrastructure was used in your run to solve the Kohn-Sham electronic structure.
  Please check out http://elsi-interchange.org to learn more.
  If scalability is important for your project, please acknowledge ELSI by citing:

    V. W-z. Yu, F. Corsetti, A. Garcia, W. P. Huhn, M. Jacquelin, W. Jia,
    B. Lange, L. Lin, J. Lu, W. Mi, A. Seifitokaldani, A. Vazquez-Mayagoitia,
    C. Yang, H. Yang, and V. Blum
    'ELSI: A unified software interface for Kohn-Sham electronic structure solvers'
    Computer Physics Communications 222, 267-285 (2018).
    http://dx.doi.org/10.1016/j.cpc.2017.09.007


  For the real-space grid partitioning and parallelization used in this calculation, please cite:

    Ville Havu, Volker Blum, Paula Havu, and Matthias Scheffler,
    'Efficient O(N) integration for all-electron electronic structure calculation'
    'using numerically tabulated basis functions'
    Journal of Computational Physics 228, 8367-8379 (2009).
    http://dx.doi.org/10.1016/j.jcp.2009.08.008


  The high-level electronic structure method used in your calculation
  employed our efficient localized resolution of identity for the Coulomb operator.
  Some calculations, especially large-scale hybrid density functional theory,
  are only possible thanks to this development. For this feature, please cite:

    Arvid Ihrig, Juergen Wieferink, Igor Ying Zhang, Matti Ropo, Xinguo Ren,
    Patrick Rinke, Matthias Scheffler, and Volker Blum,
    'Accurate localized resolution of identity approach for linear-scaling
    hybrid density functionals and for many-body perturbation theory'
    New Journal of Physics 117, 093020 (2015).
    http://dx.doi.org/10.1088/1367-2630/17/9/093020

  Of course, there are many other important community references, e.g., those cited in the
  above references. Our list is limited to references that describe implementations in the
  FHI-aims code. The reason is purely practical (length of this list) - please credit others as well.

------------------------------------------------------------
          Leaving FHI-aims.
          Date     :  20210824, Time     :  144848.607

          Computational steps:
          | Number of self-consistency cycles          :           34
          | Number of SCF (re)initializations          :            3
          | Number of relaxation steps                 :            2

          Detailed time accounting                     :  max(cpu_time)    wall_clock(cpu1)
          | Total time                                 :        7.194 s           7.195 s
          | Preparation time                           :        0.105 s           0.105 s
          | Boundary condition initalization           :        0.000 s           0.000 s
          | Grid partitioning                          :        0.038 s           0.039 s
          | Preloading free-atom quantities on grid    :        0.025 s           0.023 s
          | Free-atom superposition energy             :        0.038 s           0.039 s
          | Total time for integrations                :        1.064 s           1.059 s
          | Product basis setup: Total time            :        4.170 s           4.170 s
          | Total time evaluating exchange matrix      :        0.462 s           0.465 s
          | Total time for solution of K.-S. equations :        0.020 s           0.015 s
          | Total time for EV reorthonormalization     :        0.000 s           0.000 s
          | Total time for density & force components  :        0.687 s           0.685 s
          | Total time for mixing                      :        0.055 s           0.059 s
          | Total time for Hartree multipole update    :        0.054 s           0.049 s
          | Total time for Hartree multipole sum       :        0.372 s           0.375 s
          | Total time for total energy evaluation     :        0.005 s           0.005 s
          | Total time for scaled ZORA corrections     :        0.000 s           0.000 s

          Partial memory accounting:
          | Residual value for overall tracked memory usage across tasks:     0.000000 MB (should be 0.000000 MB)
          | Peak values for overall tracked memory usage:
          |   Minimum:        8.460 MB (on task 0 after allocating d_coeff_3fn)
          |   Maximum:       11.498 MB (on task 1 after allocating d_coeff_3fn)
          |   Average:        9.369 MB
          | Largest tracked array allocation:
          |   Minimum:        5.733 MB (d_coeff_3fn on task 0)
          |   Maximum:        5.733 MB (d_coeff_3fn on task 0)
          |   Average:        5.733 MB
          Note:  These values currently only include a subset of arrays which are explicitly tracked.
          The "true" memory usage will be greater.

          Have a nice day.
------------------------------------------------------------
